created by fftool

3384 atoms
2274 bonds
1324 angles
8 atom types
4 bond types
2 angle types
0.000000 33.281591 xlo xhi
0.000000 33.281591 ylo yhi
0.000000 33.281591 zlo zhi

Masses

   1   15.999  # Ow
   2    1.008  # Hw
   3   22.940  # Na
   4    0.050  # M
   5   10.811  # B
   6   17.008  # OH
   7    0.983  # H
   8    0.050  # L


Atoms

      1       1    1  -1.112800  1.776553e+01  1.546059e+00  5.917161e+00  # Ow water
      2       1    2   0.556400  1.800669e+01  1.500900e+00  6.842382e+00  # Hw water
      3       1    2   0.556400  1.680942e+01  1.500465e+00  5.915857e+00  # Hw water
      4       2    1  -1.112800  7.787651e+00  2.994322e+01  1.569186e+01  # Ow water
      5       2    2   0.556400  8.561326e+00  2.982088e+01  1.624203e+01  # Hw water
      6       2    2   0.556400  7.370230e+00  3.073251e+01  1.603683e+01  # Hw water
      7       3    1  -1.112800  5.628547e+00  2.704143e+01  1.500573e+00  # Ow water
      8       3    2   0.556400  5.451132e+00  2.610082e+01  1.499390e+00  # Hw water
      9       3    2   0.556400  5.291849e+00  2.734810e+01  2.342485e+00  # Hw water
     10       4    1  -1.112800  1.786559e+01  1.502910e+00  1.419551e+01  # Ow water
     11       4    2   0.556400  1.817954e+01  2.400982e+00  1.430101e+01  # Hw water
     12       4    2   0.556400  1.705731e+01  1.589062e+00  1.369005e+01  # Hw water
     13       5    1  -1.112800  1.303096e+01  2.120729e+01  1.750305e+01  # Ow water
     14       5    2   0.556400  1.241832e+01  2.143278e+01  1.820310e+01  # Hw water
     15       5    2   0.556400  1.382719e+01  2.093520e+01  1.795936e+01  # Hw water
     16       6    1  -1.112800  1.458841e+01  1.950766e+00  3.913251e+00  # Ow water
     17       6    2   0.556400  1.537453e+01  1.510140e+00  3.590610e+00  # Hw water
     18       6    2   0.556400  1.438087e+01  1.501783e+00  4.732746e+00  # Hw water
     19       7    1  -1.112800  2.670079e+01  1.903170e+01  1.736641e+00  # Ow water
     20       7    2   0.556400  2.666873e+01  1.864090e+01  2.609837e+00  # Hw water
     21       7    2   0.556400  2.655530e+01  1.996587e+01  1.886313e+00  # Hw water
     22       8    1  -1.112800  2.735879e+01  2.015405e+00  2.228837e+01  # Ow water
     23       8    2   0.556400  2.690920e+01  1.503644e+00  2.296083e+01  # Hw water
     24       8    2   0.556400  2.813787e+01  1.501290e+00  2.207637e+01  # Hw water
     25       9    1  -1.112800  2.403970e+01  2.742920e+01  1.401030e+01  # Ow water
     26       9    2   0.556400  2.491483e+01  2.750542e+01  1.363008e+01  # Hw water
     27       9    2   0.556400  2.403505e+01  2.656965e+01  1.443146e+01  # Hw water
     28      10    1  -1.112800  9.841771e+00  2.940198e+01  2.762419e+01  # Ow water
     29      10    2   0.556400  1.064770e+01  2.963310e+01  2.808603e+01  # Hw water
     30      10    2   0.556400  1.003851e+01  2.956525e+01  2.670177e+01  # Hw water
     31      11    1  -1.112800  5.498363e+00  1.956732e+01  3.189919e+00  # Ow water
     32      11    2   0.556400  5.957978e+00  1.916025e+01  2.455564e+00  # Hw water
     33      11    2   0.556400  4.699525e+00  1.992639e+01  2.803717e+00  # Hw water
     34      12    1  -1.112800  1.013617e+01  8.798197e+00  1.565701e+00  # Ow water
     35      12    2   0.556400  9.854101e+00  7.885769e+00  1.501350e+00  # Hw water
     36      12    2   0.556400  1.109161e+01  8.757508e+00  1.524419e+00  # Hw water
     37      13    1  -1.112800  2.804486e+01  1.642437e+01  3.790553e+00  # Ow water
     38      13    2   0.556400  2.867432e+01  1.571171e+01  3.900689e+00  # Hw water
     39      13    2   0.556400  2.720888e+01  1.605160e+01  4.070584e+00  # Hw water
     40      14    1  -1.112800  2.335127e+00  1.973545e+00  1.499997e+00  # Ow water
     41      14    2   0.556400  1.503870e+00  1.500111e+00  1.533173e+00  # Hw water
     42      14    2   0.556400  2.905326e+00  1.500051e+00  2.105724e+00  # Hw water
     43      15    1  -1.112800  8.325738e+00  4.362203e+00  2.170313e+01  # Ow water
     44      15    2   0.556400  7.857481e+00  5.105596e+00  2.132323e+01  # Hw water
     45      15    2   0.556400  8.629984e+00  3.858886e+00  2.094793e+01  # Hw water
     46      16    1  -1.112800  2.243652e+01  2.093842e+01  1.898158e+00  # Ow water
     47      16    2   0.556400  2.203925e+01  2.085425e+01  2.764943e+00  # Hw water
     48      16    2   0.556400  2.199377e+01  2.168952e+01  1.503137e+00  # Hw water
     49      17    1  -1.112800  1.957402e+01  5.783903e+00  1.731060e+01  # Ow water
     50      17    2   0.556400  1.917119e+01  5.748244e+00  1.817818e+01  # Hw water
     51      17    2   0.556400  1.910250e+01  6.481641e+00  1.685556e+01  # Hw water
     52      18    1  -1.112800  2.131877e+00  1.537784e+00  3.123757e+01  # Ow water
     53      18    2   0.556400  2.925791e+00  1.500990e+00  3.177103e+01  # Hw water
     54      18    2   0.556400  1.498176e+00  2.004659e+00  3.178226e+01  # Hw water
     55      19    1  -1.112800  1.862359e+01  2.448155e+01  1.625668e+01  # Ow water
     56      19    2   0.556400  1.871263e+01  2.391223e+01  1.549237e+01  # Hw water
     57      19    2   0.556400  1.825841e+01  2.391525e+01  1.693652e+01  # Hw water
     58      20    1  -1.112800  1.500955e+01  2.583420e+01  3.562514e+00  # Ow water
     59      20    2   0.556400  1.523280e+01  2.668498e+01  3.940102e+00  # Hw water
     60      20    2   0.556400  1.441995e+01  2.543499e+01  4.202225e+00  # Hw water
     61      21    1  -1.112800  2.818479e+01  3.055132e+01  2.888244e+01  # Ow water
     62      21    2   0.556400  2.748397e+01  3.014841e+01  2.836986e+01  # Hw water
     63      21    2   0.556400  2.787425e+01  3.143979e+01  2.905680e+01  # Hw water
     64      22    1  -1.112800  8.341200e+00  1.516026e+00  2.253196e+01  # Ow water
     65      22    2   0.556400  7.575605e+00  1.500066e+00  2.195764e+01  # Hw water
     66      22    2   0.556400  9.089337e+00  1.500491e+00  2.193507e+01  # Hw water
     67      23    1  -1.112800  1.517327e+00  1.536887e+01  1.986952e+00  # Ow water
     68      23    2   0.556400  1.502041e+00  1.629211e+01  2.239176e+00  # Hw water
     69      23    2   0.556400  1.500019e+00  1.489293e+01  2.817261e+00  # Hw water
     70      24    1  -1.112800  3.178073e+01  1.706017e+01  1.833002e+01  # Ow water
     71      24    2   0.556400  3.170977e+01  1.638176e+01  1.900155e+01  # Hw water
     72      24    2   0.556400  3.130412e+01  1.780711e+01  1.869217e+01  # Hw water
     73      25    1  -1.112800  3.178024e+01  2.043719e+01  1.500556e+00  # Ow water
     74      25    2   0.556400  3.175600e+01  1.948043e+01  1.516356e+00  # Hw water
     75      25    2   0.556400  3.163525e+01  2.069599e+01  2.410627e+00  # Hw water
     76      26    1  -1.112800  8.509433e+00  3.005301e+00  2.946457e+01  # Ow water
     77      26    2   0.556400  7.844235e+00  3.690956e+00  2.952471e+01  # Hw water
     78      26    2   0.556400  8.010136e+00  2.194234e+00  2.936917e+01  # Hw water
     79      27    1  -1.112800  2.165046e+01  4.879521e+00  2.582918e+01  # Ow water
     80      27    2   0.556400  2.142152e+01  3.951524e+00  2.577780e+01  # Hw water
     81      27    2   0.556400  2.091785e+01  5.331001e+00  2.541004e+01  # Hw water
     82      28    1  -1.112800  1.944165e+01  2.547564e+01  8.223972e+00  # Ow water
     83      28    2   0.556400  1.998740e+01  2.564539e+01  7.456141e+00  # Hw water
     84      28    2   0.556400  1.855369e+01  2.539847e+01  7.874954e+00  # Hw water
     85      29    1  -1.112800  1.192991e+01  1.738510e+01  7.194946e+00  # Ow water
     86      29    2   0.556400  1.182633e+01  1.744873e+01  8.144395e+00  # Hw water
     87      29    2   0.556400  1.219446e+01  1.826390e+01  6.922971e+00  # Hw water
     88      30    1  -1.112800  2.329152e+01  1.499072e+01  8.567041e+00  # Ow water
     89      30    2   0.556400  2.376363e+01  1.582124e+01  8.507216e+00  # Hw water
     90      30    2   0.556400  2.293252e+01  1.485504e+01  7.690150e+00  # Hw water
     91      31    1  -1.112800  2.617879e+01  1.596289e+01  1.733822e+00  # Ow water
     92      31    2   0.556400  2.704898e+01  1.628699e+01  1.501523e+00  # Hw water
     93      31    2   0.556400  2.558652e+01  1.667828e+01  1.502159e+00  # Hw water
     94      32    1  -1.112800  1.948383e+01  3.092749e+01  3.790034e+00  # Ow water
     95      32    2   0.556400  1.936180e+01  3.178243e+01  4.202832e+00  # Hw water
     96      32    2   0.556400  1.901196e+01  3.031762e+01  4.357151e+00  # Hw water
     97      33    1  -1.112800  4.993204e+00  1.586402e+01  1.078680e+01  # Ow water
     98      33    2   0.556400  5.727443e+00  1.568134e+01  1.020050e+01  # Hw water
     99      33    2   0.556400  4.258232e+00  1.604646e+01  1.020135e+01  # Hw water
    100      34    1  -1.112800  1.652593e+01  1.529202e+01  1.621978e+00  # Ow water
    101      34    2   0.556400  1.608930e+01  1.613520e+01  1.501088e+00  # Hw water
    102      34    2   0.556400  1.634575e+01  1.505677e+01  2.532153e+00  # Hw water
    103      35    1  -1.112800  6.313746e+00  2.872239e+01  3.160902e+01  # Ow water
    104      35    2   0.556400  7.084645e+00  2.927953e+01  3.171640e+01  # Hw water
    105      35    2   0.556400  5.572340e+00  2.930260e+01  3.178192e+01  # Hw water
    106      36    1  -1.112800  1.048067e+01  2.253758e+01  7.333158e+00  # Ow water
    107      36    2   0.556400  1.038588e+01  2.244457e+01  6.385216e+00  # Hw water
    108      36    2   0.556400  1.118074e+01  2.318117e+01  7.442344e+00  # Hw water
    109      37    1  -1.112800  7.635713e+00  1.700395e+01  1.788737e+01  # Ow water
    110      37    2   0.556400  7.258277e+00  1.664998e+01  1.869265e+01  # Hw water
    111      37    2   0.556400  7.387470e+00  1.792838e+01  1.789210e+01  # Hw water
    112      38    1  -1.112800  1.438927e+01  2.434415e+01  1.757924e+01  # Ow water
    113      38    2   0.556400  1.517450e+01  2.468295e+01  1.800918e+01  # Hw water
    114      38    2   0.556400  1.406743e+01  2.366288e+01  1.816959e+01  # Hw water
    115      39    1  -1.112800  1.225069e+01  1.500420e+00  9.768751e+00  # Ow water
    116      39    2   0.556400  1.214616e+01  2.358799e+00  9.358279e+00  # Hw water
    117      39    2   0.556400  1.288311e+01  1.646255e+00  1.047232e+01  # Hw water
    118      40    1  -1.112800  3.157581e+01  1.906068e+01  2.404635e+01  # Ow water
    119      40    2   0.556400  3.178101e+01  1.813416e+01  2.417158e+01  # Hw water
    120      40    2   0.556400  3.178137e+01  1.946787e+01  2.488789e+01  # Hw water
    121      41    1  -1.112800  1.633814e+01  1.487796e+01  1.463785e+01  # Ow water
    122      41    2   0.556400  1.672852e+01  1.423269e+01  1.404840e+01  # Hw water
    123      41    2   0.556400  1.594204e+01  1.552624e+01  1.405556e+01  # Hw water
    124      42    1  -1.112800  1.391914e+01  1.815467e+01  1.500415e+00  # Ow water
    125      42    2   0.556400  1.353694e+01  1.730763e+01  1.729909e+00  # Hw water
    126      42    2   0.556400  1.417891e+01  1.853589e+01  2.339115e+00  # Hw water
    127      43    1  -1.112800  1.752357e+01  2.521399e+01  4.430452e+00  # Ow water
    128      43    2   0.556400  1.824851e+01  2.548071e+01  4.995743e+00  # Hw water
    129      43    2   0.556400  1.727275e+01  2.434875e+01  4.753985e+00  # Hw water
    130      44    1  -1.112800  1.643667e+01  3.813504e+00  7.138537e+00  # Ow water
    131      44    2   0.556400  1.660550e+01  3.404736e+00  7.987438e+00  # Hw water
    132      44    2   0.556400  1.730644e+01  3.986259e+00  6.778135e+00  # Hw water
    133      45    1  -1.112800  3.982661e+00  1.781224e+01  1.576204e+00  # Ow water
    134      45    2   0.556400  3.111628e+00  1.820903e+01  1.567102e+00  # Hw water
    135      45    2   0.556400  3.818963e+00  1.687222e+01  1.500085e+00  # Hw water
    136      46    1  -1.112800  3.159732e+01  2.136459e+01  2.852990e+01  # Ow water
    137      46    2   0.556400  3.178046e+01  2.071031e+01  2.785565e+01  # Hw water
    138      46    2   0.556400  3.177978e+01  2.220332e+01  2.810627e+01  # Hw water
    139      47    1  -1.112800  1.581544e+00  2.140695e+01  2.275832e+01  # Ow water
    140      47    2   0.556400  1.549849e+00  2.227488e+01  2.316071e+01  # Hw water
    141      47    2   0.556400  1.501981e+00  2.157471e+01  2.181931e+01  # Hw water
    142      48    1  -1.112800  2.782047e+01  3.171131e+01  1.423074e+01  # Ow water
    143      48    2   0.556400  2.696146e+01  3.177868e+01  1.381387e+01  # Hw water
    144      48    2   0.556400  2.844412e+01  3.178082e+01  1.350793e+01  # Hw water
    145      49    1  -1.112800  2.502412e+01  3.006413e+01  2.241652e+01  # Ow water
    146      49    2   0.556400  2.418920e+01  2.959758e+01  2.245480e+01  # Hw water
    147      49    2   0.556400  2.495573e+01  3.061490e+01  2.163665e+01  # Hw water
    148      50    1  -1.112800  8.904312e+00  1.300149e+01  4.974768e+00  # Ow water
    149      50    2   0.556400  9.322749e+00  1.308320e+01  4.117760e+00  # Hw water
    150      50    2   0.556400  8.325140e+00  1.224437e+01  4.887847e+00  # Hw water
    151      51    1  -1.112800  3.930171e+00  1.396642e+01  2.555371e+01  # Ow water
    152      51    2   0.556400  3.783225e+00  1.345025e+01  2.476112e+01  # Hw water
    153      51    2   0.556400  4.478828e+00  1.469629e+01  2.526650e+01  # Hw water
    154      52    1  -1.112800  7.014149e+00  1.894354e+01  2.590023e+01  # Ow water
    155      52    2   0.556400  6.072436e+00  1.906676e+01  2.578097e+01  # Hw water
    156      52    2   0.556400  7.310096e+00  1.974989e+01  2.632266e+01  # Hw water
    157      53    1  -1.112800  2.149599e+01  1.097130e+01  1.157555e+01  # Ow water
    158      53    2   0.556400  2.213396e+01  1.050081e+01  1.211209e+01  # Hw water
    159      53    2   0.556400  2.102522e+01  1.152825e+01  1.219556e+01  # Hw water
    160      54    1  -1.112800  3.101027e+01  2.211181e+01  1.231225e+01  # Ow water
    161      54    2   0.556400  3.064695e+01  2.222016e+01  1.143334e+01  # Hw water
    162      54    2   0.556400  3.177889e+01  2.155518e+01  1.218727e+01  # Hw water
    163      55    1  -1.112800  5.599658e+00  2.278397e+01  1.716822e+01  # Ow water
    164      55    2   0.556400  6.550135e+00  2.282523e+01  1.706276e+01  # Hw water
    165      55    2   0.556400  5.309655e+00  2.217080e+01  1.649283e+01  # Hw water
    166      56    1  -1.112800  6.514006e+00  2.679572e+01  2.065388e+01  # Ow water
    167      56    2   0.556400  6.445354e+00  2.655939e+01  1.972886e+01  # Hw water
    168      56    2   0.556400  7.419408e+00  2.659087e+01  2.088735e+01  # Hw water
    169      57    1  -1.112800  1.787753e+01  1.478835e+01  9.007316e+00  # Ow water
    170      57    2   0.556400  1.768562e+01  1.570916e+01  8.829832e+00  # Hw water
    171      57    2   0.556400  1.783734e+01  1.471428e+01  9.960798e+00  # Hw water
    172      58    1  -1.112800  7.094389e+00  3.177748e+01  1.028489e+01  # Ow water
    173      58    2   0.556400  6.328314e+00  3.131829e+01  9.940650e+00  # Hw water
    174      58    2   0.556400  7.821686e+00  3.146997e+01  9.743864e+00  # Hw water
    175      59    1  -1.112800  1.784704e+01  2.584194e+01  2.905327e+01  # Ow water
    176      59    2   0.556400  1.753527e+01  2.672408e+01  2.925541e+01  # Hw water
    177      59    2   0.556400  1.798714e+01  2.584802e+01  2.810640e+01  # Hw water
    178      60    1  -1.112800  3.082305e+01  1.500648e+00  1.149310e+01  # Ow water
    179      60    2   0.556400  3.059815e+01  1.593064e+00  1.241891e+01  # Hw water
    180      60    2   0.556400  3.178012e+01  1.502852e+00  1.147725e+01  # Hw water
    181      61    1  -1.112800  2.891366e+01  2.468000e+01  1.319606e+01  # Ow water
    182      61    2   0.556400  2.938664e+01  2.395018e+01  1.279622e+01  # Hw water
    183      61    2   0.556400  2.857613e+01  2.518231e+01  1.245445e+01  # Hw water
    184      62    1  -1.112800  1.497885e+01  2.374921e+01  2.932604e+01  # Ow water
    185      62    2   0.556400  1.413494e+01  2.417664e+01  2.947213e+01  # Hw water
    186      62    2   0.556400  1.562451e+01  2.437325e+01  2.965761e+01  # Hw water
    187      63    1  -1.112800  9.108657e+00  4.051711e+00  1.395475e+01  # Ow water
    188      63    2   0.556400  8.170426e+00  3.877229e+00  1.388054e+01  # Hw water
    189      63    2   0.556400  9.327660e+00  4.530639e+00  1.315544e+01  # Hw water
    190      64    1  -1.112800  2.859382e+01  3.178154e+01  2.616735e+01  # Ow water
    191      64    2   0.556400  2.842554e+01  3.089382e+01  2.585134e+01  # Hw water
    192      64    2   0.556400  2.929222e+01  3.167784e+01  2.681366e+01  # Hw water
    193      65    1  -1.112800  3.160043e+01  2.228986e+01  2.450224e+01  # Ow water
    194      65    2   0.556400  3.177856e+01  2.205369e+01  2.541258e+01  # Hw water
    195      65    2   0.556400  3.178154e+01  2.322873e+01  2.445803e+01  # Hw water
    196      66    1  -1.112800  1.588487e+01  4.030565e+00  4.430357e+00  # Ow water
    197      66    2   0.556400  1.672414e+01  3.692339e+00  4.118156e+00  # Hw water
    198      66    2   0.556400  1.546817e+01  4.396076e+00  3.649981e+00  # Hw water
    199      67    1  -1.112800  2.930528e+01  3.177943e+01  7.825542e+00  # Ow water
    200      67    2   0.556400  2.936616e+01  3.171554e+01  8.778664e+00  # Hw water
    201      67    2   0.556400  3.021309e+01  3.174372e+01  7.524148e+00  # Hw water
    202      68    1  -1.112800  2.374025e+01  2.450332e+01  1.622032e+01  # Ow water
    203      68    2   0.556400  2.304844e+01  2.428855e+01  1.559462e+01  # Hw water
    204      68    2   0.556400  2.454972e+01  2.423888e+01  1.578322e+01  # Hw water
    205      69    1  -1.112800  3.092999e+01  2.877360e+01  4.513232e+00  # Ow water
    206      69    2   0.556400  3.029048e+01  2.866648e+01  5.217343e+00  # Hw water
    207      69    2   0.556400  3.173748e+01  2.902905e+01  4.959256e+00  # Hw water
    208      70    1  -1.112800  1.534217e+00  2.232486e+00  7.250191e+00  # Ow water
    209      70    2   0.556400  1.500198e+00  1.501527e+00  6.633125e+00  # Hw water
    210      70    2   0.556400  1.502499e+00  3.014016e+00  6.698437e+00  # Hw water
    211      71    1  -1.112800  1.531750e+00  2.382349e+01  3.161423e+01  # Ow water
    212      71    2   0.556400  1.500210e+00  2.286897e+01  3.167855e+01  # Hw water
    213      71    2   0.556400  1.501424e+00  2.400182e+01  3.067428e+01  # Hw water
    214      72    1  -1.112800  1.373081e+01  1.492728e+01  2.406868e+01  # Ow water
    215      72    2   0.556400  1.303182e+01  1.476987e+01  2.343397e+01  # Hw water
    216      72    2   0.556400  1.335392e+01  1.554876e+01  2.469153e+01  # Hw water
    217      73    1  -1.112800  2.457090e+00  1.261276e+01  1.548243e+01  # Ow water
    218      73    2   0.556400  2.757049e+00  1.175775e+01  1.579098e+01  # Hw water
    219      73    2   0.556400  1.501940e+00  1.255268e+01  1.549998e+01  # Hw water
    220      74    1  -1.112800  1.558059e+00  2.335628e+01  4.469388e+00  # Ow water
    221      74    2   0.556400  1.512961e+00  2.378582e+01  5.323604e+00  # Hw water
    222      74    2   0.556400  2.490427e+00  2.334994e+01  4.252874e+00  # Hw water
    223      75    1  -1.112800  2.629869e+01  2.960111e+01  1.484775e+01  # Ow water
    224      75    2   0.556400  2.544515e+01  2.994745e+01  1.458745e+01  # Hw water
    225      75    2   0.556400  2.669588e+01  2.930196e+01  1.402984e+01  # Hw water
    226      76    1  -1.112800  6.920947e+00  1.533780e+00  3.674401e+00  # Ow water
    227      76    2   0.556400  6.700841e+00  1.706813e+00  4.589738e+00  # Hw water
    228      76    2   0.556400  7.877477e+00  1.501203e+00  3.659606e+00  # Hw water
    229      77    1  -1.112800  8.579651e+00  2.404254e+01  2.784517e+01  # Ow water
    230      77    2   0.556400  8.940982e+00  2.489780e+01  2.761235e+01  # Hw water
    231      77    2   0.556400  8.347015e+00  2.412401e+01  2.877008e+01  # Hw water
    232      78    1  -1.112800  7.416553e+00  2.775171e+01  2.845624e+01  # Ow water
    233      78    2   0.556400  7.298762e+00  2.825301e+01  2.926312e+01  # Hw water
    234      78    2   0.556400  7.352577e+00  2.683690e+01  2.873055e+01  # Hw water
    235      79    1  -1.112800  2.979212e+01  3.148869e+01  1.509504e+00  # Ow water
    236      79    2   0.556400  2.952573e+01  3.156090e+01  2.426047e+00  # Hw water
    237      79    2   0.556400  3.070337e+01  3.178157e+01  1.500640e+00  # Hw water
    238      80    1  -1.112800  1.929650e+01  1.144076e+01  1.540184e+00  # Ow water
    239      80    2   0.556400  2.009858e+01  1.196170e+01  1.501168e+00  # Hw water
    240      80    2   0.556400  1.959789e+01  1.053300e+01  1.503373e+00  # Hw water
    241      81    1  -1.112800  2.179538e+01  1.502335e+00  1.484372e+01  # Ow water
    242      81    2   0.556400  2.091417e+01  1.545896e+00  1.447250e+01  # Hw water
    243      81    2   0.556400  2.165698e+01  1.500301e+00  1.579085e+01  # Hw water
    244      82    1  -1.112800  1.480536e+01  3.175141e+01  1.110498e+01  # Ow water
    245      82    2   0.556400  1.561905e+01  3.178120e+01  1.160822e+01  # Hw water
    246      82    2   0.556400  1.411336e+01  3.178090e+01  1.176565e+01  # Hw water
    247      83    1  -1.112800  2.047285e+01  3.119808e+01  1.321130e+01  # Ow water
    248      83    2   0.556400  2.075375e+01  3.178044e+01  1.250548e+01  # Hw water
    249      83    2   0.556400  2.004652e+01  3.177612e+01  1.384403e+01  # Hw water
    250      84    1  -1.112800  2.372817e+01  1.126464e+01  7.288665e+00  # Ow water
    251      84    2   0.556400  2.390322e+01  1.145204e+01  6.366454e+00  # Hw water
    252      84    2   0.556400  2.380208e+01  1.211374e+01  7.724325e+00  # Hw water
    253      85    1  -1.112800  3.170404e+01  7.845947e+00  1.847636e+01  # Ow water
    254      85    2   0.556400  3.178119e+01  8.075202e+00  1.755023e+01  # Hw water
    255      85    2   0.556400  3.178084e+01  8.681191e+00  1.893755e+01  # Hw water
    256      86    1  -1.112800  3.177363e+01  1.429410e+01  2.437352e+00  # Ow water
    257      86    2   0.556400  3.178141e+01  1.409367e+01  1.501406e+00  # Hw water
    258      86    2   0.556400  3.085724e+01  1.419650e+01  2.696071e+00  # Hw water
    259      87    1  -1.112800  6.212035e+00  1.723354e+01  2.343978e+01  # Ow water
    260      87    2   0.556400  6.617266e+00  1.808527e+01  2.327677e+01  # Hw water
    261      87    2   0.556400  6.728644e+00  1.685410e+01  2.415067e+01  # Hw water
    262      88    1  -1.112800  1.567131e+00  1.777213e+00  1.041878e+01  # Ow water
    263      88    2   0.556400  2.411522e+00  1.776988e+00  1.086959e+01  # Hw water
    264      88    2   0.556400  1.542541e+00  2.614575e+00  9.955692e+00  # Hw water
    265      89    1  -1.112800  1.548039e+00  1.557487e+01  2.366692e+01  # Ow water
    266      89    2   0.556400  1.501582e+00  1.530371e+01  2.275011e+01  # Hw water
    267      89    2   0.556400  1.533445e+00  1.475500e+01  2.416071e+01  # Hw water
    268      90    1  -1.112800  2.328012e+01  3.152977e+01  1.961172e+01  # Ow water
    269      90    2   0.556400  2.342744e+01  3.178039e+01  1.869974e+01  # Hw water
    270      90    2   0.556400  2.319367e+01  3.057678e+01  1.958776e+01  # Hw water
    271      91    1  -1.112800  5.462010e+00  2.013165e+01  2.915333e+01  # Ow water
    272      91    2   0.556400  4.567676e+00  2.025239e+01  2.947242e+01  # Hw water
    273      91    2   0.556400  5.356251e+00  1.975934e+01  2.827787e+01  # Hw water
    274      92    1  -1.112800  2.270568e+01  2.106808e+01  8.076397e+00  # Ow water
    275      92    2   0.556400  2.307690e+01  2.026758e+01  7.705426e+00  # Hw water
    276      92    2   0.556400  2.175978e+01  2.092197e+01  8.064405e+00  # Hw water
    277      93    1  -1.112800  9.403729e+00  2.267387e+01  2.205995e+01  # Ow water
    278      93    2   0.556400  9.669174e+00  2.350779e+01  2.244770e+01  # Hw water
    279      93    2   0.556400  8.861823e+00  2.291953e+01  2.131014e+01  # Hw water
    280      94    1  -1.112800  8.943913e+00  2.327343e+01  3.769216e+00  # Ow water
    281      94    2   0.556400  9.789614e+00  2.282739e+01  3.723777e+00  # Hw water
    282      94    2   0.556400  8.463310e+00  2.280751e+01  4.453444e+00  # Hw water
    283      95    1  -1.112800  1.326535e+01  2.351279e+00  2.810164e+01  # Ow water
    284      95    2   0.556400  1.402342e+01  2.838650e+00  2.842416e+01  # Hw water
    285      95    2   0.556400  1.331296e+01  1.507923e+00  2.855187e+01  # Hw water
    286      96    1  -1.112800  8.398631e+00  2.780878e+01  2.495085e+01  # Ow water
    287      96    2   0.556400  8.355611e+00  2.759938e+01  2.588387e+01  # Hw water
    288      96    2   0.556400  9.326461e+00  2.772898e+01  2.472951e+01  # Hw water
    289      97    1  -1.112800  8.224973e+00  1.726227e+01  1.459254e+01  # Ow water
    290      97    2   0.556400  7.766046e+00  1.650422e+01  1.495445e+01  # Hw water
    291      97    2   0.556400  8.423915e+00  1.780806e+01  1.535330e+01  # Hw water
    292      98    1  -1.112800  2.820404e+01  1.526668e+00  9.722065e+00  # Ow water
    293      98    2   0.556400  2.724765e+01  1.500336e+00  9.751084e+00  # Hw water
    294      98    2   0.556400  2.847281e+01  1.500774e+00  1.064039e+01  # Hw water
    295      99    1  -1.112800  1.874912e+01  4.660036e+00  2.299294e+01  # Ow water
    296      99    2   0.556400  1.843252e+01  5.134996e+00  2.376133e+01  # Hw water
    297      99    2   0.556400  1.957240e+01  4.263709e+00  2.327818e+01  # Hw water
    298     100    1  -1.112800  2.848100e+01  3.882598e+00  2.100521e+00  # Ow water
    299     100    2   0.556400  2.921450e+01  4.020491e+00  1.501204e+00  # Hw water
    300     100    2   0.556400  2.771950e+01  3.783696e+00  1.529062e+00  # Hw water
    301     101    1  -1.112800  2.368475e+01  1.673239e+01  1.218220e+01  # Ow water
    302     101    2   0.556400  2.325985e+01  1.632718e+01  1.142623e+01  # Hw water
    303     101    2   0.556400  2.428120e+01  1.737872e+01  1.180440e+01  # Hw water
    304     102    1  -1.112800  2.486204e+01  2.220995e+01  1.396008e+01  # Ow water
    305     102    2   0.556400  2.394350e+01  2.207945e+01  1.419563e+01  # Hw water
    306     102    2   0.556400  2.500034e+01  2.163635e+01  1.320636e+01  # Hw water
    307     103    1  -1.112800  2.370836e+01  2.648848e+01  1.060699e+01  # Ow water
    308     103    2   0.556400  2.359578e+01  2.631479e+01  1.154154e+01  # Hw water
    309     103    2   0.556400  2.343834e+01  2.567663e+01  1.017777e+01  # Hw water
    310     104    1  -1.112800  2.164456e+01  1.723043e+01  1.464518e+01  # Ow water
    311     104    2   0.556400  2.152963e+01  1.665526e+01  1.540162e+01  # Hw water
    312     104    2   0.556400  2.258639e+01  1.739804e+01  1.461205e+01  # Hw water
    313     105    1  -1.112800  1.089035e+01  1.848004e+01  2.868488e+01  # Ow water
    314     105    2   0.556400  1.067996e+01  1.888719e+01  2.952523e+01  # Hw water
    315     105    2   0.556400  1.089542e+01  1.754053e+01  2.886799e+01  # Hw water
    316     106    1  -1.112800  2.229014e+01  2.958993e+01  1.613571e+01  # Ow water
    317     106    2   0.556400  2.314127e+01  2.929518e+01  1.581177e+01  # Hw water
    318     106    2   0.556400  2.242409e+01  2.972506e+01  1.707381e+01  # Hw water
    319     107    1  -1.112800  9.467409e+00  2.361325e+01  1.577947e+01  # Ow water
    320     107    2   0.556400  1.000134e+01  2.386468e+01  1.502586e+01  # Hw water
    321     107    2   0.556400  8.810047e+00  2.301763e+01  1.541983e+01  # Hw water
    322     108    1  -1.112800  3.120348e+01  1.372719e+01  1.148025e+01  # Ow water
    323     108    2   0.556400  3.177928e+01  1.449064e+01  1.143755e+01  # Hw water
    324     108    2   0.556400  3.177853e+01  1.300706e+01  1.173902e+01  # Hw water
    325     109    1  -1.112800  9.676045e+00  1.540024e+00  1.269894e+01  # Ow water
    326     109    2   0.556400  1.041846e+01  1.502905e+00  1.209589e+01  # Hw water
    327     109    2   0.556400  8.926896e+00  1.757470e+00  1.214422e+01  # Hw water
    328     110    1  -1.112800  1.292652e+01  2.314466e+01  1.531699e+01  # Ow water
    329     110    2   0.556400  1.248976e+01  2.284404e+01  1.452006e+01  # Hw water
    330     110    2   0.556400  1.338362e+01  2.394331e+01  1.505345e+01  # Hw water
    331     111    1  -1.112800  3.092395e+01  6.992392e+00  3.178019e+01  # Ow water
    332     111    2   0.556400  3.035434e+01  7.743269e+00  3.161300e+01  # Hw water
    333     111    2   0.556400  3.178040e+01  7.262361e+00  3.144876e+01  # Hw water
    334     112    1  -1.112800  5.777725e+00  2.494996e+01  6.156802e+00  # Ow water
    335     112    2   0.556400  5.237417e+00  2.417130e+01  6.022700e+00  # Hw water
    336     112    2   0.556400  5.573025e+00  2.523357e+01  7.047809e+00  # Hw water
    337     113    1  -1.112800  5.172349e+00  1.709326e+01  1.565336e+01  # Ow water
    338     113    2   0.556400  5.600378e+00  1.793473e+01  1.581133e+01  # Hw water
    339     113    2   0.556400  4.236217e+00  1.729006e+01  1.568735e+01  # Hw water
    340     114    1  -1.112800  2.754287e+01  2.213163e+01  5.031611e+00  # Ow water
    341     114    2   0.556400  2.679546e+01  2.177041e+01  4.555040e+00  # Hw water
    342     114    2   0.556400  2.821305e+01  2.226517e+01  4.361354e+00  # Hw water
    343     115    1  -1.112800  1.602394e+01  9.850182e+00  1.619284e+01  # Ow water
    344     115    2   0.556400  1.596809e+01  9.909265e+00  1.523910e+01  # Hw water