LAMMPS (22 Aug 2018)
####################################################
#  Transport properties of NaB(OH)4 in water
#  at 298 K and 1 atm.
#################### SETTING UP ####################
units real
dimension 3
newton on
boundary p p p
atom_style full

#################### VARIABLES ####################
variable Temp equal 298       # Temperature in K
variable Pres equal 1.0       # Pressure in atm.

variable RandomSeed equal 500 # The random seed for velocity
variable tstep equal 1.0      # 1fs
variable Ninptpre equal 10000 # Pre-initialize the NPT ensemble (very small timesteps)
variable Ninpt equal 5000000  # Initialize the NPT ensemble
variable Npnpt equal 5000000  # Production in the NPT ensemble (volume)
variable Ninvtpre equal 10000 # Pre-initialize the NVT ensemble (very small timesteps)
variable Ninvt equal 1000000   # Initialize the NVT ensemble
variable Nrun equal 20000000    # production in the NVT ensemble
variable Nf equal 10000       # Nfreq (fix ave/time and thermo)
variable Ne equal  10         # Nevery (fix ave/time)
variable Nr equal ${Nf}/${Ne} # Nrepeat (fix ave/time)
variable Nr equal 10000/${Ne} 
variable Nr equal 10000/10 
variable NBR equal ${Npnpt}/10 # Block averaging for density (NPT)
variable NBR equal 5000000/10 
variable Nd equal ${Nrun}/10 # Frequency of outputting positions of atoms in the NVT ensemble
variable Nd equal 20000000/10 

variable nb equal 10          # Number of blocks (fix ordern)
variable nbe equal 20         # Number of block elements (fix ordern)
variable Nvisc equal 5        # Nevery for viscosity (fix ordern: sample data at (Nvisc*2))
variable Ncond equal 5        # Nevery for Tconductivity (fix ordern: sample data at (Ncond*2))
variable Ndiff equal 1000     # Nevery for diffusivity (fix ordern: sample data at (Ndiff))
variable Nwrit equal 100000   # Nwrite for transport properties (fix ordern: write every (Nwrit))

variable Nrdfe equal 100      # Nevery for RDF (fix ave/time)
variable Nrdfw equal 1000     # Nwrite for RDF (compute rdf/ext: write every (Nrdfw*Nrdfe))
variable binnum equal 2000    # Number of bins for RDF

#################### ATOM DEFINITION and FORCEFIELD ####################
read_data ./data.lmp                     # read the positions
  orthogonal box = (0 0 0) to (33.2816 33.2816 33.2816)
  4 by 4 by 8 MPI processor grid
  reading atoms ...
  3384 atoms
  scanning bonds ...
  4 = max bonds/atom
  scanning angles ...
  6 = max angles/atom
  reading bonds ...
  2274 bonds
  reading angles ...
  1324 angles
  4 = max # of 1-2 neighbors
  3 = max # of 1-3 neighbors
  3 = max # of 1-4 neighbors
  4 = max # of special neighbors
include ./forcefield.data                  # read the force field
# ----------------- INTERMOLECULAR POTENTIAL -------------------
# ---------------Developed for Na(B(OH)4) in water (tip4p/2005) system-----

mass 1 15.9994 # Ow
mass 2 1.00794 # Hw
mass 3 22.9397 # Na
mass 4 0.0500  # M
mass 5 10.811  # B(B(OH)4)
mass 6 17.008  # OH(B(OH)4)
mass 7 0.9830  # (H2 - 0.05)/2
mass 8 0.0500  # L site Marx force field

pair_style lj/cut/tip4p/long 1 2 1 1 0.1546 10.0
kspace_style pppm/tip4p 1.0e-5
pair_modify tail yes # ATC

#-----------------Combinations----------------------------

pair_coeff 1 1 0.1852 3.1589     # Ow-Ow
pair_coeff 1 2 0.0000 0.0000     # Ow-Hw
pair_coeff 1 3 0.1897 2.60838    # Ow-Na
pair_coeff 1 4 0.0000 0.0000     # Ow-M
pair_coeff 1 5 0.0000 0.0000     # Ow-B(B(OH)4)
pair_coeff 1 6 0.1361 3.0100     # Ow-OH(B(OH)4)
pair_coeff 1 7 0.0000 0.0000     # Ow-H (Marx)
pair_coeff 1 8 0.1162 3.05845    # Ow-L (Marx)

pair_coeff 2 2 0.0000 0.0000     # Hw-Hw
pair_coeff 2 3 0.0000 0.0000     # Hw-Na
pair_coeff 2 4 0.0000 0.0000     # Hw-M
pair_coeff 2 5 0.0000 0.0000     # Hw-B(B(OH)4)
pair_coeff 2 6 0.0000 0.0000     # Hw-OH(B(OH)4)
pair_coeff 2 7 0.0000 0.0000     # Hw-H (Marx)
pair_coeff 2 8 0.0000 0.0000     # Hw-L (Marx)

pair_coeff 3 3 0.3519 2.2174     # Na-Na
pair_coeff 3 4 0.0000 0.0000     # Na-M
pair_coeff 3 5 0.0000 0.0000     # Na-B(B(OH)4)
pair_coeff 3 6 0.1876 2.5837     # Na-OH(B(OH)4)
pair_coeff 3 7 0.0000 0.0000     # Na-H (Marx)
pair_coeff 3 8 0.1602 2.5877     # Na-L (Marx)

pair_coeff 4 4 0.0000 0.0000     # M-M
pair_coeff 4 5 0.0000 0.0000     # M-B
pair_coeff 4 6 0.0000 0.0000     # M-OH
pair_coeff 4 7 0.0000 0.0000     # M-H (Marx)
pair_coeff 4 8 0.0000 0.0000     # M-L (Marx)

pair_coeff 5 5 0.0000 0.0000     # B(B(OH)4)-B(B(OH)4)
pair_coeff 5 6 0.0000 0.0000     # B(B(OH)4)-OH(B(OH)4)
pair_coeff 5 7 0.0000 0.0000     # B(B(OH)4)-H (Marx)
pair_coeff 5 8 0.0000 0.0000     # B(B(OH)4)-L (Marx)

pair_coeff 6 6 0.1000 2.9500     # OH(B(OH)4)-OH(B(OH)4)
pair_coeff 6 7 0.0000 0.0000     # OH(B(OH)4)-H (Marx)
pair_coeff 6 8 0.0853 2.9540     # OH(B(OH)4)-L (Marx)

pair_coeff 7 7 0.0000 0.0000     # H-H (Marx)
pair_coeff 7 8 0.0000 0.0000     # H-L (Marx)

pair_coeff 8 8 0.0729 2.9580     # L-L (Marx)

#Specify bonds/angles
bond_style  harmonic
bond_coeff 1 1000 0.9572          # Ow-Hw
bond_coeff 2 1000 0.5000          # Na-M
bond_coeff 3 1000 1.4900          # B(B(OH)4)-OH(B(OH)4)
bond_coeff 4 1000 0.7400          # H - L

angle_style harmonic
angle_coeff 1 100 104.52          # H-O-H
angle_coeff 2 100 109.5           # OH(B(OH)4)-B(B(OH)4)-OH(B(OH)4)
#dihedral_style none
#improper_style none

#Specify charges

set type 1 charge -1.1128        # O
  1000 settings made for charge
set type 2 charge +0.5564        # OH
  2000 settings made for charge
set type 3 charge +0.8500        # Na
  54 settings made for charge
set type 4 charge 0.00000        # M
  54 settings made for charge
set type 5 charge +2.5500        # B(B(OH)4)
  54 settings made for charge
set type 6 charge -0.8500        # OH(B(OH)4)
  216 settings made for charge
set type 7 charge +0.4680        # H (Marx)
  4 settings made for charge
set type 8 charge -0.9360        # L (Marx)
  2 settings made for charge





#################### INITIALIZATION ####################
# groups for the central atoms of water (O) and methanol (O)
group wat type 1      # The Oxygen of WATER molecules
1000 atoms in group wat
group Na type 3
54 atoms in group Na
group B type 5
54 atoms in group B
group OH type 6
216 atoms in group OH
group H2  type 8
2 atoms in group H2

# neigbor lists
neighbor 2.0 bin
neigh_modify every 1 delay 0 check yes

# velocity-Verlet integrator
run_style verlet

# minimizing the system using the conjugate gradient method
#min_style cg
#min_modify dmax 0.05
#minimize 1.0e-6 1.0e-6 1000 10000
#reset_timestep 0

# initializing velocities
velocity all create ${Temp} ${RandomSeed}
velocity all create 298 ${RandomSeed}
velocity all create 298 500

# rate of writing thermal properties to the log file
thermo ${Nf}
thermo 10000

#################### 1) Initialize the NPT ensemble ####################
# applying the shake algorithm for rigid molecules and the NPT solver
#fix constrain all shake 1.0e-6 1000 0 b 1 a 1
fix integrate all rigid/npt/small molecule temp ${Temp} ${Temp} 10.0 iso ${Pres} ${Pres} 100.0
fix integrate all rigid/npt/small molecule temp 298 ${Temp} 10.0 iso ${Pres} ${Pres} 100.0
fix integrate all rigid/npt/small molecule temp 298 298 10.0 iso ${Pres} ${Pres} 100.0
fix integrate all rigid/npt/small molecule temp 298 298 10.0 iso 1 ${Pres} 100.0
fix integrate all rigid/npt/small molecule temp 298 298 10.0 iso 1 1 100.0
1110 rigid bodies with 3384 atoms
  1.49001 = max distance from body owner to body atom


# Initializing the whole system with very small timesteps in the NPT ensemble
timestep 0.001
run ${Ninptpre}
run 10000
PPPM initialization ...
  extracting TIP4P info from pair style
  using 12-bit tables for long-range coulomb (../kspace.cpp:321)
  G vector (1/distance) = 0.312312
  grid = 32 32 32
  stencil order = 5
  estimated absolute RMS force accuracy = 0.00371576
  estimated relative force accuracy = 1.11899e-05
  using double precision FFTs
  3d grid and FFT values/proc = 2475 256
Neighbor list info ...
  update every 1 steps, delay 0 steps, check yes
  max neighbors/atom: 2000, page size: 100000
  master list distance cutoff = 12.3092
  ghost atom cutoff = 12.3092
  binsize = 6.1546, bins = 6 6 6
  1 neighbor lists, perpetual/occasional/extra = 1 0 0
  (1) pair lj/cut/tip4p/long, perpetual
      attributes: half, newton on
      pair build: half/bin/newton
      stencil: half/bin/3d/newton
      bin: standard
Per MPI rank memory allocation (min/avg/max) = 13.57 | 13.62 | 14.09 Mbytes
Step Temp E_pair E_mol TotEng Press Volume 
       0    295.45101   -316.21653    547.60901    2169.1894    5810478.2     36864.83 
   10000    928.78094   -5627.9123    547.61038    1011.3639    8920.6154    37746.532 
Loop time of 11.2763 on 128 procs for 10000 steps with 3384 atoms

Performance: 0.077 ns/day, 313.231 hours/ns, 886.815 timesteps/s
99.4% CPU use with 128 MPI tasks x no OpenMP threads

MPI task timing breakdown:
Section |  min time  |  avg time  |  max time  |%varavg| %total
---------------------------------------------------------------
Pair    | 1.8503     | 2.8118     | 3.6765     |  23.1 | 24.94
Bond    | 0.0065487  | 0.011817   | 0.020073   |   2.3 |  0.10
Kspace  | 3.1159     | 4.0334     | 4.9617     |  19.0 | 35.77
Neigh   | 0.00036863 | 0.00038932 | 0.00041664 |   0.0 |  0.00
Comm    | 0.86543    | 0.99239    | 1.1477     |   6.7 |  8.80
Output  | 0.00010143 | 0.00010326 | 0.00010733 |   0.0 |  0.00
Modify  | 3.1936     | 3.297      | 3.3528     |   1.9 | 29.24
Other   |            | 0.1294     |            |       |  1.15

Nlocal:    26.4375 ave 33 max 20 min
Histogram: 3 7 13 21 17 21 32 4 6 4
Nghost:    2801.86 ave 2859 max 2762 min
Histogram: 16 12 29 20 8 11 3 6 16 7
Neighs:    9368.64 ave 12551 max 6556 min
Histogram: 4 10 15 21 24 22 13 12 6 1

Total # of neighbors = 1199186
Ave neighs/atom = 354.369
Ave special neighs/atom = 2.12766
Neighbor list builds = 1
Dangerous builds = 0
timestep 0.01
run ${Ninptpre}
run 10000
PPPM initialization ...
  extracting TIP4P info from pair style
  using 12-bit tables for long-range coulomb (../kspace.cpp:321)
  G vector (1/distance) = 0.311747
  grid = 32 32 32
  stencil order = 5
  estimated absolute RMS force accuracy = 0.00380391
  estimated relative force accuracy = 1.14554e-05
  using double precision FFTs
  3d grid and FFT values/proc = 2475 256
Per MPI rank memory allocation (min/avg/max) = 13.57 | 13.63 | 14.09 Mbytes
Step Temp E_pair E_mol TotEng Press Volume 
   10000    928.78094    -5627.911    547.61038    1011.3653    3110.5216    37746.532 
   20000    450.74167   -15371.868    547.62343   -11867.931    3120.0078    33326.872 
Loop time of 11.5705 on 128 procs for 10000 steps with 3384 atoms

Performance: 0.747 ns/day, 32.140 hours/ns, 864.268 timesteps/s
99.4% CPU use with 128 MPI tasks x no OpenMP threads

MPI task timing breakdown:
Section |  min time  |  avg time  |  max time  |%varavg| %total
---------------------------------------------------------------
Pair    | 1.8505     | 2.783      | 3.8106     |  23.0 | 24.05
Bond    | 0.0079347  | 0.011776   | 0.019415   |   2.1 |  0.10
Kspace  | 3.2177     | 4.2799     | 5.1753     |  18.4 | 36.99
Neigh   | 0.0039093  | 0.004149   | 0.0044062  |   0.2 |  0.04
Comm    | 0.88155    | 1.0102     | 1.148      |   6.5 |  8.73
Output  | 9.4908e-05 | 9.8796e-05 | 0.00010223 |   0.0 |  0.00
Modify  | 3.2377     | 3.3378     | 3.4029     |   2.0 | 28.85
Other   |            | 0.1436     |            |       |  1.24

Nlocal:    26.4375 ave 34 max 19 min
Histogram: 3 3 16 17 29 17 19 8 12 4
Nghost:    3043.66 ave 3091 max 3001 min
Histogram: 5 10 13 22 21 18 14 12 10 3
Neighs:    10319.9 ave 14642 max 6874 min
Histogram: 4 12 14 28 22 16 16 13 2 1

Total # of neighbors = 1320943
Ave neighs/atom = 390.35
Ave special neighs/atom = 2.12766
Neighbor list builds = 12
Dangerous builds = 0
timestep 0.1
run ${Ninptpre}
run 10000
PPPM initialization ...
  extracting TIP4P info from pair style
  using 12-bit tables for long-range coulomb (../kspace.cpp:321)
  G vector (1/distance) = 0.314707
  grid = 32 32 32
  stencil order = 5
  estimated absolute RMS force accuracy = 0.00336244
  estimated relative force accuracy = 1.01259e-05
  using double precision FFTs
  3d grid and FFT values/proc = 2475 256
Per MPI rank memory allocation (min/avg/max) = 13.58 | 13.71 | 14.1 Mbytes
Step Temp E_pair E_mol TotEng Press Volume 
   20000    450.74167   -15371.864    547.62343   -11867.927    2316.4499    33326.872 
   30000    307.54166    -19266.39    547.62969   -16701.664   -400.58373    32435.417 
Loop time of 13.7764 on 128 procs for 10000 steps with 3384 atoms

Performance: 6.272 ns/day, 3.827 hours/ns, 725.878 timesteps/s
99.4% CPU use with 128 MPI tasks x no OpenMP threads

MPI task timing breakdown:
Section |  min time  |  avg time  |  max time  |%varavg| %total
---------------------------------------------------------------
Pair    | 2.4721     | 3.3375     | 4.3201     |  20.5 | 24.23
Bond    | 0.0086059  | 0.011767   | 0.017071   |   1.7 |  0.09
Kspace  | 3.7118     | 4.6493     | 5.4908     |  17.1 | 33.75
Neigh   | 0.019689   | 0.020675   | 0.021723   |   0.5 |  0.15
Comm    | 1.051      | 1.1962     | 1.3496     |   6.3 |  8.68
Output  | 9.7753e-05 | 0.00010009 | 0.00010376 |   0.0 |  0.00
Modify  | 4.2972     | 4.4015     | 4.4822     |   2.0 | 31.95
Other   |            | 0.1594     |            |       |  1.16

Nlocal:    26.4375 ave 35 max 18 min
Histogram: 1 5 13 15 29 36 15 7 6 1
Nghost:    3147.81 ave 3174 max 3125 min
Histogram: 5 8 15 16 31 19 15 11 6 2
Neighs:    10732 ave 13995 max 7103 min
Histogram: 2 5 7 21 23 23 23 12 6 6

Total # of neighbors = 1373701
Ave neighs/atom = 405.94
Ave special neighs/atom = 2.12766
Neighbor list builds = 50
Dangerous builds = 0
timestep 0.2
run ${Ninptpre}
run 10000
PPPM initialization ...
  extracting TIP4P info from pair style
  using 12-bit tables for long-range coulomb (../kspace.cpp:321)
  G vector (1/distance) = 0.315345
  grid = 32 32 32
  stencil order = 5
  estimated absolute RMS force accuracy = 0.00327355
  estimated relative force accuracy = 9.85819e-06
  using double precision FFTs
  3d grid and FFT values/proc = 2475 256
Per MPI rank memory allocation (min/avg/max) = 13.58 | 13.84 | 14.11 Mbytes
Step Temp E_pair E_mol TotEng Press Volume 
   30000    307.54166    -19266.39    547.62969   -16701.664    5676.7277    32435.417 
   40000    304.73935    -19415.35    547.62764   -16869.005     152.9027    32834.535 
Loop time of 13.744 on 128 procs for 10000 steps with 3384 atoms

Performance: 12.573 ns/day, 1.909 hours/ns, 727.592 timesteps/s
99.4% CPU use with 128 MPI tasks x no OpenMP threads

MPI task timing breakdown:
Section |  min time  |  avg time  |  max time  |%varavg| %total
---------------------------------------------------------------
Pair    | 2.3229     | 3.3047     | 4.1675     |  21.2 | 24.04
Bond    | 0.0081468  | 0.011754   | 0.017773   |   1.6 |  0.09
Kspace  | 4.107      | 4.9363     | 5.8967     |  17.0 | 35.92
Neigh   | 0.042243   | 0.044727   | 0.046877   |   0.8 |  0.33
Comm    | 1.0524     | 1.1948     | 1.3577     |   6.3 |  8.69
Output  | 0.00010144 | 0.00010336 | 0.00010644 |   0.0 |  0.00
Modify  | 3.9854     | 4.093      | 4.1719     |   2.1 | 29.78
Other   |            | 0.1585     |            |       |  1.15

Nlocal:    26.4375 ave 36 max 18 min
Histogram: 1 10 14 24 19 29 15 9 5 2
Nghost:    3119.86 ave 3153 max 3085 min
Histogram: 2 2 13 20 20 34 13 14 7 3
Neighs:    10634.6 ave 15546 max 6287 min
Histogram: 2 6 18 25 24 23 14 9 6 1

Total # of neighbors = 1361226
Ave neighs/atom = 402.254
Ave special neighs/atom = 2.12766
Neighbor list builds = 121
Dangerous builds = 0
timestep 0.5
run ${Ninptpre}
run 10000
PPPM initialization ...
  extracting TIP4P info from pair style
  using 12-bit tables for long-range coulomb (../kspace.cpp:321)
  G vector (1/distance) = 0.315058
  grid = 32 32 32
  stencil order = 5
  estimated absolute RMS force accuracy = 0.00331334
  estimated relative force accuracy = 9.97802e-06
  using double precision FFTs
  3d grid and FFT values/proc = 2475 256
Per MPI rank memory allocation (min/avg/max) = 13.58 | 13.89 | 14.11 Mbytes
Step Temp E_pair E_mol TotEng Press Volume 
   40000    304.73935    -19415.35    547.62764   -16869.006     407.0679    32834.535 
   50000    294.93988   -19528.939    547.68037   -17046.815    611.80154    32993.508 
Loop time of 13.4856 on 128 procs for 10000 steps with 3384 atoms

Performance: 32.034 ns/day, 0.749 hours/ns, 741.532 timesteps/s
99.4% CPU use with 128 MPI tasks x no OpenMP threads

MPI task timing breakdown:
Section |  min time  |  avg time  |  max time  |%varavg| %total
---------------------------------------------------------------
Pair    | 2.4943     | 3.2871     | 4.1424     |  18.3 | 24.38
Bond    | 0.0087501  | 0.011765   | 0.016614   |   1.5 |  0.09
Kspace  | 3.8153     | 4.6428     | 5.3858     |  15.1 | 34.43
Neigh   | 0.12581    | 0.13324    | 0.14027    |   1.5 |  0.99
Comm    | 1.0769     | 1.2184     | 1.3746     |   6.2 |  9.03
Output  | 9.5429e-05 | 9.6712e-05 | 9.9406e-05 |   0.0 |  0.00
Modify  | 3.9017     | 4.0098     | 4.0862     |   2.1 | 29.73
Other   |            | 0.1823     |            |       |  1.35

Nlocal:    26.4375 ave 35 max 18 min
Histogram: 3 5 19 10 30 31 8 10 6 6
Nghost:    3089.59 ave 3139 max 3058 min
Histogram: 12 14 23 24 16 15 15 4 3 2
Neighs:    10562.3 ave 14017 max 6243 min
Histogram: 1 5 5 15 22 33 21 11 7 8

Total # of neighbors = 1351975
Ave neighs/atom = 399.52
Ave special neighs/atom = 2.12766
Neighbor list builds = 374
Dangerous builds = 0
reset_timestep 0

# continuing the initialization with the final value of timestep
unfix integrate
fix integrate all rigid/npt/small molecule temp ${Temp} ${Temp} 100.0 iso ${Pres} ${Pres} 1000.0
fix integrate all rigid/npt/small molecule temp 298 ${Temp} 100.0 iso ${Pres} ${Pres} 1000.0
fix integrate all rigid/npt/small molecule temp 298 298 100.0 iso ${Pres} ${Pres} 1000.0
fix integrate all rigid/npt/small molecule temp 298 298 100.0 iso 1 ${Pres} 1000.0
fix integrate all rigid/npt/small molecule temp 298 298 100.0 iso 1 1 1000.0
1110 rigid bodies with 3384 atoms
  1.49042 = max distance from body owner to body atom

timestep ${tstep}
timestep 1
run ${Ninpt}
run 5000000
PPPM initialization ...
  extracting TIP4P info from pair style
  using 12-bit tables for long-range coulomb (../kspace.cpp:321)
  G vector (1/distance) = 0.314944
  grid = 32 32 32
  stencil order = 5
  estimated absolute RMS force accuracy = 0.00332919
  estimated relative force accuracy = 1.00258e-05
  using double precision FFTs
  3d grid and FFT values/proc = 2475 256
Per MPI rank memory allocation (min/avg/max) = 13.83 | 13.95 | 14.11 Mbytes
Step Temp E_pair E_mol TotEng Press Volume 
       0    294.93988   -19528.939    547.68037   -17046.815    1416.9578    32993.508 
   10000      302.887   -19703.309     547.6781   -17169.063   -1626.0797     33284.17 
   20000    302.13134   -19563.059    547.67786   -17033.769    225.39903    32872.341 
   30000    285.98069   -19583.602    547.66325   -17160.255   -731.63609    33094.066 
   40000    296.31724   -19498.779    547.67801   -17007.623    130.55855    33045.105 
   50000    299.12686   -19595.443    547.70523   -17085.832    376.27601     32775.06 
   60000    307.72798   -19593.729    547.67958    -17027.73    677.99236    32991.004 
   70000     294.9127   -19524.058    547.68333   -17042.108   -162.37196    33422.506 
   80000    288.27909   -19622.919    547.68043    -17184.48     135.1621    32537.136 
   90000    300.28528   -19570.992    547.67701   -17053.811   -1229.7109     32989.73 
  100000    294.72536   -19541.923    547.68827   -17061.197    60.629314    32895.189 
  110000    294.25422   -19479.979    547.68215   -17002.349   -249.30903    33341.877 
  120000    297.56078   -19582.122    547.67985   -17082.807   -80.919539    32661.845 
  130000    293.61522   -19619.198    547.68581   -17145.756   -481.56506    33030.446 
  140000    290.96999   -19666.561    547.68276   -17210.471    246.81716    33094.539 
  150000     297.1945   -19539.216    547.64587   -17042.338    54.284282    33121.301 
  160000     302.5818   -19608.961    547.68059   -17076.714    18.301398    33028.587 
  170000    296.19112   -19590.549    547.68335   -17100.215   -222.00056    33083.981 
  180000    306.91376   -19636.212    547.68472   -17075.549   -130.39054    32803.717 
  190000    293.00335   -19622.606    547.67875   -17153.184   -357.72086    32940.335 
  200000    298.82361   -19637.561    547.68194   -17129.962    16.901776    32805.784 
  210000    295.55611   -19602.237    547.68332   -17116.067    691.36275    32598.111 
  220000    299.77207   -19669.336    547.68454   -17155.513   -64.255903    32778.787 
  230000    300.25817   -19567.173    547.67818   -17050.169   -572.69441    33010.115 
  240000    291.00831    -19629.42    547.68891   -17173.073    509.25645     32723.77 
  250000     296.0891   -19630.115    547.68376   -17140.449   -249.25955        32650 
  260000    299.23928   -19566.105    547.67634   -17055.785    965.48442    32303.406 
  270000    297.67202   -19590.838    547.68615   -17090.788    567.66322    32838.244 
  280000    298.02254   -19663.686    547.67724   -17161.346   -542.44692    32612.406 
  290000    312.44931   -19599.027    547.68319   -17002.058   -417.17308    33023.384 
  300000    289.02939   -19631.339    547.70807   -17187.952   -83.925641    32918.234 
  310000    295.20499   -19639.245    547.70439   -17155.357    183.53357    32680.274 
  320000    301.62843   -19602.445    547.68358   -17076.448     37.62987    32818.671 
  330000    302.27361   -19603.782    547.68147   -17073.555   -604.19965    33079.621 
  340000    291.38534   -19642.593    547.68004   -17183.782   -589.03362    32847.391 
  350000    306.05879   -19644.561    547.68345   -17089.507   -1096.9443    32938.924 
  360000    299.72219   -19708.857    547.67805   -17195.368   -455.31424    32992.602 
  370000    308.81313     -19634.2    547.68234   -17061.082    840.44058    32774.772 
  380000    296.27014   -19601.513    547.67899   -17110.665    42.268119      32426.1 
  390000    294.11936   -19647.423    547.68044    -17170.68   -951.12961    32996.367 
  400000    299.46654   -19582.997    547.68255   -17071.181   -616.15885    33104.764 
  410000    293.06659   -19569.607    547.67629   -17099.773   -115.55048    33014.365 
  420000    302.94668   -19618.432    547.67912   -17083.794   -208.92491    33142.925 
  430000    305.59658    -19631.94    547.68067    -17079.92    442.26664    32954.459 
  440000     299.2354   -19613.023    547.68344   -17102.722      407.645    32446.586 
  450000    292.92715   -19579.314    547.69438   -17110.376    156.97254    32945.981 
  460000     305.5446   -19709.013    547.68384    -17157.33    714.72303    32676.336 
  470000    295.67399   -19682.276    547.67913   -17195.337     152.9913    32430.316 
  480000    292.01497   -19560.286    547.68591    -17097.34   -275.76878    33256.855 
  490000    302.87559   -19697.762    547.67967    -17163.59    1345.8686    32505.925 
  500000    298.67444    -19646.78    547.68007   -17140.161   -93.678104    32534.169 
  510000    297.45345    -19682.19    547.68236   -17183.577   -27.196378    32925.628 
  520000    297.16946    -19716.82    547.67765   -17220.074   -273.89172    33036.815 
  530000    300.47626     -19668.2    547.68112   -17149.762   -237.01464    32764.659 
  540000    294.01759   -19582.249    547.67744   -17106.176   -111.15957    32662.019 
  550000    294.52279   -19538.907    547.67783    -17059.52    127.81117    32888.943 
  560000     293.5316   -19575.852    547.68907   -17102.955    268.20616    33342.267 
  570000    289.88204   -19661.255    547.68248   -17212.301   -301.89921    32834.972 
  580000    300.13562   -19581.668    547.67885   -17065.467   -213.34093     32891.99 
  590000    290.73245   -19632.169    547.68073   -17177.639    206.17039    32753.523 
  600000    293.45633   -19708.766    547.69711   -17236.355   -10.530346    32713.444 
  610000    301.03929   -19595.228    547.66509   -17073.113   -262.46703    32691.095 
  620000      298.521   -19663.994    547.67842   -17158.383    -364.7337    33052.039 
  630000    299.37341   -19591.749    547.67578    -17080.55    354.05282    32896.477 
  640000    302.25229   -19563.176    547.68064   -17033.091   -65.395288    32798.855 
  650000    293.97603   -19701.807    547.68757   -17225.996      833.879    32694.383 
  660000    295.05245   -19640.424    547.68401   -17157.557     402.9662    32919.875 
  670000    298.92175   -19639.067    547.67588    -17130.83   -67.855614    32723.862 
  680000    306.59118   -19723.122    547.68153   -17164.578   -227.19274    32723.019 
  690000    292.74167   -19644.197    547.58971    -17176.58    4.6645506    33015.641 
  700000    293.40134   -19591.135    547.67662   -17119.105    713.77106     32337.83 
  710000    293.41022   -19740.152    547.68857   -17268.052      1169.99     32733.58 
  720000    296.81291   -19625.379    547.68105   -17130.969    436.55187    33159.532 
  730000    294.70138    -19585.56    547.68363   -17104.996    570.50912    33087.725 
  740000     293.6513   -19660.724    547.68187   -17187.049   -185.27325    33336.039 
  750000    300.34483   -19655.394    547.69534   -17137.804    604.42672     32702.06 
  760000    298.95183   -19571.869    547.64769   -17063.464    731.83474    32811.485 
  770000     299.0675   -19616.249    547.67795   -17107.055   -877.13442    32943.858 
  780000    295.87314   -19635.913    547.67863   -17147.669   -376.68173     32889.18 
  790000    300.51154   -19551.176    547.68161   -17032.506   -443.98116    32903.668 
  800000    295.28565   -19592.877    547.67886   -17108.486   -116.70135    32882.991 
  810000    304.02422   -19640.605    547.68221   -17098.896    829.18172    32710.871 
  820000    297.94435   -19622.887    547.68974   -17121.047    842.70071    32831.902 
  830000     295.7848    -19662.68    547.68497   -17175.009   -671.76287    33178.265 
  840000     301.6468   -19634.707    547.67997   -17108.594    201.10162    32995.865 
  850000    308.41641   -19580.536    547.67891   -17010.023   -378.63862    33046.991 
  860000    305.32971   -19489.341    547.68271   -16939.069   -44.785505    33224.559 
  870000    303.10153   -19704.863    547.71735    -17169.17   -117.84197    32672.647 
  880000    301.32669   -19610.203     547.6781   -17086.191   -424.32743    33093.171 
  890000    299.46549   -19618.955    547.67721   -17107.151   -1418.6791     33126.03 
  900000    290.25035   -19598.737     547.6773   -17147.373    133.72955     33131.84 
  910000    298.78522    -19629.44    547.68328   -17122.091   -302.80897     32703.83 
  920000    290.11773   -19633.209    547.68071   -17182.711   -888.93003    33111.797 
  930000    301.65355   -19726.118    547.68076   -17199.959   -97.954993    32952.427 
  940000    294.83117   -19671.992       547.68   -17190.581     830.5709    32777.764 
  950000    288.52488   -19599.729    547.68573   -17159.673    444.08423     32819.72 
  960000    304.15261   -19553.407    547.67917   -17010.859    793.46608    32570.556 
  970000    294.62739   -19624.133    547.68038   -17144.058   -569.03775    32973.008 
  980000    292.51289   -19689.982    547.68242   -17223.774    490.00452    32911.195 
  990000     296.7429   -19655.198    547.68424   -17161.243   -207.82475     32492.38 
 1000000    304.17398   -19540.927    547.68048   -16998.238     366.6437    33159.181 
 1010000    297.25017   -19658.064    547.68417   -17160.783    303.36883    32686.282 
 1020000    296.78817   -19666.463    547.67755   -17172.219     -453.243    33036.864 
 1030000    298.02458   -19539.015     547.6814   -17036.658   -508.97958    33309.459 
 1040000    300.99165   -19702.053    547.68083   -17180.235    232.69466    32572.086 
 1050000     304.4228   -19661.374    547.68679   -17117.047    129.59229    32951.714 
 1060000    295.01227   -19645.339    547.67826   -17162.742   -514.14277    32626.564 
 1070000    298.84883   -19707.088     547.6984   -17199.307    468.05584    32812.533 
 1080000    299.11104   -19632.154    547.68118   -17122.671   -237.14478    32751.296 
 1090000    293.79137   -19607.912    547.68186   -17133.318    -232.0357    32498.151 
 1100000    284.48469   -19616.199    547.68268   -17202.645   -727.06583    33114.789 
 1110000    303.86218    -19704.52    547.67797   -17163.878    168.92668    32656.119 
 1120000    293.42547   -19634.943    547.66256   -17162.769   -242.29134    33061.794 
 1130000    301.67372   -19653.428     547.6797   -17127.138    307.09635    32457.201 
 1140000    300.81689   -19624.381     547.6807   -17103.709  -0.79688336     32804.46 
 1150000    297.32366   -19620.805    547.68163   -17123.044    -139.7589    33021.064 
 1160000    297.69887   -19693.522    547.68323   -17193.298    346.40131    32566.505 
 1170000    302.44708   -19616.545    547.68884   -17085.174   -611.80665    33040.751 
 1180000    299.40155   -19620.576    547.68348   -17109.185   -419.96459    32999.838 
 1190000     307.5252    -19631.02    547.68338   -17066.347   -54.935453    32789.388 
 1200000    297.69501   -19563.856    547.67824   -17063.663    1.8695573    33069.009 
 1210000    298.48663   -19676.912    547.68434   -17171.521    104.51954    32829.802 
 1220000    304.27176   -19590.211    547.67594   -17046.884    20.423129    33114.921 
 1230000    295.97476   -19541.411    547.67776   -17052.502   -168.38965    32968.078 
 1240000     304.0904   -19621.655    547.68345   -17079.511   -318.04619    32464.702 
 1250000    300.28539   -19696.898    547.65316    -17179.74    264.42898    32895.371 
 1260000    298.44591   -19623.615    547.67658   -17118.499    179.81251    33140.553 
 1270000    289.98537   -19596.932    547.68131   -17147.301   -100.82986    33189.393 
 1280000    298.35812   -19673.799    547.68122   -17169.253    689.74915    32647.643 
 1290000    297.45103   -19637.631    547.67999   -17139.036    1246.7957    33126.038 
 1300000    292.35168   -19623.442    547.67577   -17158.297   -83.150287    32474.168 
 1310000    303.55491   -19668.181    547.66289    -17129.57   -626.02602     33095.32 
 1320000    292.95364   -19659.132    547.67216   -17190.042    49.280566    32842.535 
 1330000    304.83598    -19641.52    547.68682   -17094.482    152.71525    32627.201 
 1340000    304.77408    -19542.48    547.68688   -16995.848    960.57445    32784.659 
 1350000    293.10633   -19537.356    547.68058   -17067.257   -41.899077    32768.817 
 1360000    296.81954   -19530.305    547.67968   -17035.852   -413.43801    33024.595 
 1370000    298.73377   -19662.407    547.70312   -17155.376   -302.51405    32898.808 
 1380000    303.66271   -19672.436    547.68335   -17133.097   -255.78728    32972.612 
 1390000    292.85442    -19667.64    547.68422   -17199.189   -302.56846    32992.281 
 1400000    300.38593   -19540.514    547.68045    -17022.67   -629.04509    33125.549 
 1410000    309.56552     -19556.7    547.67705   -16978.652     668.5556     32793.55 
 1420000    299.83306   -19668.725     547.6781   -17154.509    300.31809    32937.028 
 1430000    299.03407    -19538.09    547.67983   -17029.112    -429.0242    33551.656 
 1440000    290.30892   -19634.897    547.67855   -17183.147    746.58776    33009.163 
 1450000     300.0884   -19631.659    547.67353   -17115.773    385.30019    32772.364 
 1460000      299.081   -19635.234    547.69268   -17125.936    -551.0978     32997.68 
 1470000    300.18764    -19639.94    547.68045   -17123.396    147.68497    33076.179 
 1480000    301.65897   -19611.604    547.68096    -17085.41    275.74747    33090.289 
 1490000    298.36971   -19614.525    547.68653   -17109.899    148.98172    32909.933 
 1500000    300.75231   -19617.703    547.69313   -17097.443    80.832241    32513.074 
 1510000    308.10898   -19677.662    547.68529   -17109.159   -161.39274    33312.348 
 1520000    288.63469   -19594.947    547.68522   -17154.171   -267.65018    33199.589 
 1530000    297.39964   -19596.534    547.68757   -17098.269   -187.26328     32850.59 
 1540000     301.0876   -19643.544    547.68488   -17121.093   -105.30639    32467.774 
 1550000    298.68487   -19596.943     547.6747   -17090.261    75.714677    32779.748 
 1560000    295.27499   -19603.604    547.65434   -17119.308    695.07446    33021.794 
 1570000    305.64914   -19633.516    547.68178    -17081.15    327.25174     32644.18 
 1580000     293.8831    -19714.38     547.6794   -17239.187    4.9642865    32611.191 
 1590000    293.31109   -19583.175    547.67671   -17111.736    164.65537    33082.047 
 1600000    302.85487   -19610.004    547.68146   -17075.965    321.04742    32886.448 
 1610000    306.63949   -19730.158    547.68139   -17171.297   -425.19442    32940.981 
 1620000    298.46923   -19562.481    547.67805   -17057.211    148.60101    33024.048 
 1630000     295.4469   -19588.794    547.67123   -17103.353    434.52822    32938.164 
 1640000    295.80348   -19577.793    547.68016   -17090.004   -611.38219    32851.736 
 1650000    301.07715   -19590.954    547.67493   -17068.582    410.27574    32912.033 
 1660000     304.9759   -19549.713    547.68038   -17001.764    523.78081    32878.349 
 1670000    293.94043   -19689.215    547.68065   -17213.645    48.864424    33102.399 
 1680000    297.88725    -19710.04    547.68002   -17208.585    444.26603     32456.99 
 1690000    304.88163   -19602.553    547.68623   -17055.216   -133.16555    32618.609 
 1700000    301.32683   -19661.442    547.67988   -17137.427    108.15636    33036.869 
 1710000    311.03051   -19589.677    547.69188   -17002.006   -406.04995    32752.397 
 1720000    289.04361   -19627.174    547.66752   -17183.734    843.00535    33108.622 
 1730000     302.4796   -19576.268    547.67752   -17044.695    629.44093    32682.962 
 1740000    309.57289   -19587.202    547.67742   -17009.106   -120.47019    33017.708 
 1750000    299.37414   -19564.925    547.66709    -17053.73   -504.48327    33052.918 
 1760000    307.02901   -19535.941    547.67426   -16974.532     337.5819    33280.437 
 1770000    304.15585   -19626.406    547.65202   -17083.864    109.34584    33137.325 
 1780000    292.63199   -19658.445    547.68075   -17191.457     9.282595    32653.543 
 1790000    295.67092   -19654.647    547.68131   -17167.727   -51.983853    32679.322 
 1800000    304.84119   -19633.322     547.6882   -17086.248   -132.37171    33241.584 
 1810000    299.50801   -19608.175    547.67934    -17096.09    250.71871      33056.5 
 1820000    290.44324   -19651.138    547.67737   -17198.508   -406.38278    32914.622 
 1830000    296.77124   -19619.389    547.67573   -17125.257    217.28943    32812.578 
 1840000    300.92517   -19623.419    547.68056   -17102.038   -733.74114    33081.308 
 1850000    291.82284   -19525.511    547.69824   -17063.813   -549.26617    32824.852 
 1860000    301.89621   -19668.227     547.6852   -17140.472   -604.12414    32974.755 
 1870000    286.64844   -19585.191    547.68182   -17157.447    -438.8193    32902.161 
 1880000     295.6923   -19616.248    547.68174   -17129.187    -141.8071    32776.352 
 1890000    297.84841   -19657.928    547.68021   -17156.727   -90.222524    33045.041 
 1900000    308.37257   -19679.148    547.67808   -17108.923   -22.505261    32726.884 
 1910000    303.10482   -19696.585     547.6807   -17160.908   -780.46181    32983.424 
 1920000    301.58295   -19601.867    547.67753   -17076.175   -74.703998    33220.888 
 1930000     293.9687    -19633.55    547.66397   -17157.811   -914.94777    33009.508 
 1940000    280.66612   -19713.367    547.67473   -17324.867     425.7392    33125.574 
 1950000    294.53507   -19685.312    547.68008   -17205.842   -66.297316    33135.067 
 1960000    295.62759   -19582.326    547.69046   -17095.681   -169.26486    33191.115 
 1970000      290.315   -19689.832     547.6837   -17238.037    203.77542     32643.09 
 1980000    292.73079   -19595.623     547.6776    -17127.99   -309.50838    32729.355 
 1990000    298.16796   -19596.208    547.65517   -17092.936   -276.53365    33214.588 
 2000000    289.71302   -19595.298    547.68803   -17147.447    143.29373    32943.312 
 2010000     305.9055   -19634.606    547.68028    -17080.56    984.11929    33174.795 
 2020000    303.70363   -19603.957    547.67642   -17064.357    609.74359    33091.572 
 2030000    296.38844   -19628.534    547.68818   -17136.901    590.82362    33182.023 
 2040000    298.62619   -19531.904    547.67932   -17025.603    570.07846     32986.51 
 2050000      291.454   -19548.911    547.67966    -17089.65   -27.647876    32940.144 
 2060000    301.05919   -19607.261    547.67945   -17085.002   -572.90503    32844.089 
 2070000    302.05563   -19612.299    547.68294   -17083.501   -165.43821    32939.642 
 2080000    295.28922   -19568.967    547.67825   -17084.553    96.831612    32959.209 
 2090000    294.05682    -19585.98    547.68081   -17109.646   -301.42365    32730.666 
 2100000     292.1184   -19636.731    547.68384   -17173.109   -293.58706    33124.198 
 2110000    294.16184   -19604.015    547.68041   -17126.993    64.223408    33246.265 
 2120000    290.40284   -19562.753    547.68536   -17110.381    -91.08832    32945.633 
 2130000    294.88771   -19751.489    547.69318   -17269.693   -9.2824233    32906.069 
 2140000    285.95098   -19654.952    547.68371    -17231.78      504.467    33073.188 
 2150000    294.72348   -19668.279    547.68198   -17187.572    696.60719    32537.271 
 2160000    297.75733   -19577.707    547.67139   -17077.112     310.4019    32260.636 
 2170000    298.04995   -19623.329    547.69437   -17120.792   -193.49216     33132.63 
 2180000    307.42657   -19669.917    547.67967   -17105.895    80.385255    32658.252 
 2190000    293.40591   -19624.712    547.67616   -17152.652    493.55446     33006.07 
 2200000    304.77681   -19615.244     547.6847   -17068.596    479.90618    32948.931 
 2210000      296.655   -19596.494    547.67641   -17103.124    23.714552    33206.025 
 2220000    294.70169   -19576.012    547.67538   -17095.455   -148.09465    33021.868 
 2230000    291.81087   -19685.156    547.71709   -17223.517    28.558794    32620.739 
 2240000    302.86942   -19535.372    547.68537   -17001.234    224.56803    33254.395 
 2250000    298.01143   -19589.395    547.68039   -17087.125   -492.64864    33144.589 
 2260000    289.74101   -19639.732    547.68153   -17191.704    111.04801    32948.542 
 2270000     302.5409   -19714.167    547.67875   -17182.191   -392.45452    32946.127 
 2280000    297.19523   -19674.379     547.6745   -17177.468    66.455498    32566.617 
 2290000     303.7592   -19516.837    547.67396   -16976.875   -85.594207    32779.526 
 2300000    298.00192   -19675.841    547.68109   -17173.632    497.88379    32698.276 
 2310000    290.77191   -19633.878    547.68418   -17179.086    -711.1002     33072.51 
 2320000    297.21606   -19598.869    547.68287   -17101.813    587.34089    32849.863 
 2330000    301.47079   -19654.098    547.65148   -17129.167    40.025319    32952.699 
 2340000    301.57822    -19575.86    547.67826   -17050.198   -402.14182    33185.898 
 2350000    298.86823   -19617.855    547.64988   -17109.996   -690.08092    33083.672 
 2360000    297.23312   -19563.334    547.68242   -17066.166    532.01853    32963.911 
 2370000    296.57186   -19643.489    547.67798   -17150.663    612.49231    33013.687 
 2380000    300.10941   -19674.753    547.67733   -17158.725    541.68808    32961.305 
 2390000    293.36885   -19766.963    547.67436   -17295.149   -640.43841    32346.959 
 2400000    302.74084   -19635.015    547.68028   -17101.725   -238.32068    32904.626 
 2410000    298.69485   -19541.957    547.67588   -17035.209   -775.40104    32943.859 
 2420000    295.99803   -19524.377    547.67966   -17035.312      161.129    33185.064 
 2430000    298.45647   -19604.079     547.6805    -17098.89    910.60855    32582.749 
 2440000    302.37962   -19624.879    547.67643   -17093.962   -180.41854    32695.503 
 2450000    293.82322   -19658.385     547.6827   -17183.582   -316.19581    32547.989 
 2460000    300.67701   -19658.297    547.68119   -17138.543   -115.52155    32800.355 
 2470000    297.05083    -19681.15    547.68068    -17185.18   -234.24587    32627.115 
 2480000    291.94454   -19582.394     547.6792   -17119.916   -197.35429    33159.843 
 2490000    298.51082   -19634.266    547.69256   -17128.707    269.17176    32404.687 
 2500000    290.38487   -19616.582    547.67578   -17164.337   -754.61848    33168.277 
 2510000    299.85439   -19688.194    547.67856   -17173.838   -396.91251    32974.372 
 2520000    291.78644    -19639.84    547.68767   -17178.391   -40.334801    32900.794 
 2530000    299.82639   -19655.389    547.68889   -17141.206   -118.16493    33129.978 
 2540000    305.87694   -19620.531    547.67993   -17066.673   -469.02754    32923.311 
 2550000    290.03162   -19596.162    547.68034    -17146.23   -476.43181    33236.873 
 2560000    291.98696    -19663.59     547.6826    -17200.83   -73.471432    32721.842 
 2570000    295.28496    -19569.13     547.6714   -17084.751    1118.4347    33083.304 
 2580000    291.57343   -19547.334     547.6805   -17087.289    -513.2302    33093.091 
 2590000    289.82819   -19596.837    547.69029   -17148.229     480.1414    32515.583 
 2600000    300.64421   -19666.525    547.68044   -17146.987    438.45853    32733.859 
 2610000    298.16647   -19668.672    547.69687   -17165.368    1.6751769    32698.012 
 2620000    292.77607   -19560.598    547.68314   -17092.662   -341.62655    32906.963 
 2630000    289.12144     -19728.2    547.68719   -17284.231    487.19377    32594.233 
 2640000    291.54507   -19655.735    547.68117   -17195.875   -773.56487    32828.063 
 2650000    299.62436   -19582.151    547.73419   -17069.248    451.67099     33122.84 
 2660000    299.35782   -19667.152    547.66498   -17156.067   -476.21107    32731.568 
 2670000    301.23998   -19624.787     547.6882   -17101.333   -259.99985    33036.091 
 2680000    301.03269   -19636.078     547.6842   -17113.988    627.53116    32690.816 
 2690000    290.64757   -19657.339     547.6813   -17203.366    -356.3933     33041.74 
 2700000    303.66931   -19564.191    547.68492   -17024.807    362.74088    32753.858 
 2710000    287.39152   -19575.371    547.68227   -17142.752   -470.88142     32948.17 
 2720000    295.32763   -19574.225    547.67964   -17089.558   -1127.0196    33345.321 
 2730000    304.71751   -19589.355    547.69187    -17043.09    106.56668    32990.138 
 2740000    291.86659   -19589.054    547.68411   -17127.083    153.68654    32952.098 
 2750000    292.05068   -19683.112    547.67899   -17219.938   -683.99933    33204.623 
 2760000    307.56522    -19653.67    547.68347   -17088.735    259.83209    33189.726 
 2770000    296.38351   -19599.269     547.6816   -17107.674   -368.77774    33115.216 
 2780000    297.96268    -19586.67    547.68355   -17084.716    46.171995    32788.782 
 2790000     301.5689   -19526.462    547.68204   -17000.857    951.10634    32855.586 
 2800000    297.56953   -19669.475    547.68184   -17170.102   -92.506472    33064.814 
 2810000    291.91865   -19625.573    547.68167   -17163.262   -359.53042    33042.538 
 2820000    297.60463    -19598.18    547.67911   -17098.579   -553.95585    33055.625 
 2830000    301.61044   -19672.345    547.68251   -17146.468    79.953133    33237.463 
 2840000    295.12908   -19546.105    547.67873   -17062.741   -136.98796    33394.833 
 2850000      305.856   -19555.426    547.68274   -17001.702    481.09336    32753.197 
 2860000    299.17712   -19643.754    547.67555   -17133.843    151.50827    32653.363 
 2870000    295.34764   -19641.518    547.67797   -17156.722   -743.84962    33123.626 
 2880000    292.12676   -19583.552    547.67801    -17119.88   -210.46361     33034.64 
 2890000    298.38934   -19650.723    547.67834   -17145.975    303.81347    33120.162 
 2900000    310.21939   -19694.127    547.67883   -17111.789    136.70689    33221.825 
 2910000    297.79413   -19645.576    547.72066   -17144.691    418.94145    33096.393 
 2920000    301.26191   -19560.605    547.68227   -17037.014   -8.1075795    33050.735 
 2930000    299.39278   -19670.516    547.68017   -17159.185   -535.00236    33148.396 
 2940000    297.26434   -19627.429    547.68165   -17130.057   -221.52529    33192.791 
 2950000    295.15209    -19534.11    547.68327    -17050.59    294.59044    32722.076 
 2960000    298.12362   -19632.563    547.67766    -17129.56   -722.03059    32875.266 
 2970000    300.81015   -19639.246    547.74457   -17118.555    321.75421    33127.939 
 2980000    298.27404   -19586.144    547.68115    -17082.15   -176.54356    32664.136 
 2990000    296.26853   -19610.998    547.67679   -17120.163    496.35809    33191.029 
 3000000    293.11184   -19609.888    547.68088   -17139.752   -190.49236    33185.793 
 3010000    301.33563   -19599.762    547.68304   -17075.686   -737.61649    33386.265 
 3020000    292.88047   -19602.556    547.67822    -17133.94   -375.13753    32683.111 
 3030000    306.16826   -19559.951    547.68026   -17004.182   -486.16639    33052.393 
 3040000    298.19268   -19609.422    547.68508   -17105.958    706.28698    32591.503 
 3050000    297.87385    -19617.86    547.68723   -17116.485    85.754823     32742.35 
 3060000    299.99832   -19713.054    547.67667   -17197.755    359.99954    32627.621 
 3070000    297.58708   -19580.515    547.68879    -17081.02   -120.02409    33092.861 
 3080000    298.73479   -19539.667    547.67586   -17032.656   -236.18245    33070.854 
 3090000    297.96894   -19653.852    547.67882   -17151.861    875.63911    32885.578 
 3100000    305.06092   -19697.763    547.68308   -17149.254   -147.18431    32877.872 
 3110000    300.62391   -19656.505    547.68385   -17137.096   -256.45873    32761.784 
 3120000    301.69714   -19578.635    547.66597   -17052.205   -291.29428    32487.481 
 3130000      307.877   -19670.463    547.72154   -17103.445   -41.516847    32796.886 
 3140000    300.15206   -19614.309    547.67756   -17098.002    289.18978    32882.724 
 3150000    290.33098   -19664.597    547.67919   -17212.702    10.295233      32703.9 
 3160000    300.83596   -19589.782     547.6841   -17068.982   -205.65381    32928.724 
 3170000    309.14429   -19649.956    547.65175   -17074.696   -358.37974    32928.384 
 3180000    296.97242   -19674.219    547.68353    -17178.76    621.51476    32962.216 
 3190000    294.71489   -19676.544    547.68979   -17195.886   -523.12549    32693.529 
 3200000    290.31653   -19598.931    547.67567   -17147.134   -96.052077    32970.166 
 3210000    293.47642   -19582.913    547.67703    -17110.39     367.6498    32798.921 
 3220000     288.6768   -19580.331    547.64361   -17139.321    752.17293    32657.835 
 3230000    291.59667   -19577.213    547.68258   -17117.013   -818.35173     32763.36 
 3240000    301.69015   -19484.112    547.63062   -16957.763    166.96661    32969.195 
 3250000    303.90377   -19630.647    547.67822   -17089.732   -883.35764    33267.148 
 3260000    300.28577   -19625.092    547.68146   -17107.903   -288.75779    32457.079 
 3270000    286.19696   -19610.016    547.68216   -17185.232   -800.06094    33564.379 
 3280000    303.86149   -19648.585    547.68277   -17107.943    140.35855    32972.286 
 3290000    301.52677   -19635.482    547.67444   -17110.161   -42.845373    33167.076 
 3300000    284.84794   -19756.492    547.67886    -17340.56    201.80356    32518.018 
 3310000    302.28573   -19589.949    547.67974   -17059.645    530.00885    32652.907 
 3320000    296.25838   -19644.476    547.68795   -17153.696   -127.17482    32957.121 
 3330000    298.50626   -19621.557    547.68243   -17116.039   -420.46627    33027.181 
 3340000    297.58862   -19602.766    547.68058   -17103.268   -517.07571    32929.107 
 3350000    302.73119   -19577.156    547.67869   -17043.932     56.29093    33185.273 
 3360000    298.14546   -19652.664     547.6938   -17149.501   -1261.2524    33007.842 
 3370000     282.9152   -19616.382     547.6821   -17213.123   -190.17941    32902.153 
 3380000    290.41323   -19639.496    547.66082    -17187.08   -117.66735    32729.822 
 3390000    305.31148   -19628.388    547.67675   -17078.242   -782.45725    33112.479 
 3400000    295.84797   -19608.862    547.68316   -17120.778    1014.6443    32355.178 
 3410000    305.15534   -19555.697    547.68099    -17006.57   -558.04622    33118.145 
 3420000    287.58475   -19479.231    547.67784    -17045.35   -782.20692    32882.277 
 3430000    297.52112   -19564.956    547.67887   -17065.903    123.68049    32928.405 
 3440000    293.77002   -19647.222    547.69511   -17172.755   -177.37628    33077.536 
 3450000    295.73321   -19619.525    547.66788   -17132.209    259.72143    33073.165 
 3460000    301.80739   -19522.502    547.69151   -16995.324    89.875291    33550.458 
 3470000    304.11062   -19671.481    547.67878   -17129.209   -766.71792    33141.727 
 3480000    296.60338    -19602.43    547.66109   -17109.414   -1030.1386    33267.094 
 3490000    297.23144    -19660.75    547.68334   -17163.592    163.14917    32839.497 
 3500000    300.01235   -19597.837    547.67791   -17082.445   -589.83462    33175.324 
 3510000    283.02972   -19640.842     547.6843   -17236.829   -666.31336    32897.988 
 3520000    294.76705   -19589.581    547.66482   -17108.605    135.79741    32922.038 
 3530000    308.92499   -19651.889    547.68577   -17078.034   -197.87872    32790.571 
 3540000    300.27448   -19571.323    547.68241   -17054.208   -569.61313    33141.252 
 3550000    303.88324   -19586.946    547.67341   -17046.171    270.10972    33116.257 
 3560000    297.89309   -19537.449    547.67828   -17035.957   -910.92747    32855.162 
 3570000    297.75819   -19641.342     547.6813   -17140.732   -559.96853    33214.529 
 3580000    294.68266    -19672.38    547.68662   -17191.936    -1039.201    32749.182 
 3590000    302.14102   -19626.082    547.69664    -17096.71    690.45636    33228.107 
 3600000     307.5562   -19583.503    547.68006   -17018.631    69.604625     32645.51 
 3610000    298.01483   -19544.553    547.68235   -17042.259   -418.10182    32885.935 
 3620000    291.17399    -19626.01    547.68001   -17168.585    530.70572    32488.267 
 3630000    287.40631   -19556.664    547.71453   -17123.916   -550.63893    33189.509 
 3640000    294.52713   -19648.203    547.68562    -17168.78   -423.83669     33169.84 
 3650000     296.6894   -19622.143    547.67904   -17128.545    79.034834    32976.206 
 3660000    293.33288    -19581.68    547.67597   -17110.099   -923.04833    33079.514 
 3670000    297.68402   -19615.281    547.67861    -17115.16   -270.65733    33174.122 
 3680000    296.21142   -19643.767    547.67472   -17153.308   -65.039599     33344.11 
 3690000     300.4477   -19600.548    547.68031   -17082.298   -334.12198    32816.104 
 3700000    292.40948   -19675.008     547.6863   -17209.474     -97.3331    32717.647 
 3710000     290.4578   -19651.061    547.68565   -17198.328    756.20273     32703.83 
 3720000    300.06807   -19650.999    547.67903   -17135.241   -259.19586    33204.853 
 3730000    302.37902   -19666.737    547.67932   -17135.821    824.19917    32696.467 
 3740000    287.74645   -19577.202    547.68322   -17142.254    350.72545    32852.051 
 3750000    300.92674   -19671.536    547.68302   -17150.142    129.69939    32537.462 
 3760000    299.74874   -19619.022    547.68419   -17105.353    428.79713     32868.98 
 3770000    294.22219   -19654.605    547.68198   -17177.185   -391.99844    32845.342 
 3780000     295.5905   -19628.882    547.68629   -17142.484    78.242068    32570.733 
 3790000    294.36658   -19513.409    547.68276   -17035.042   -207.64931    33099.729 
 3800000    294.29997   -19687.103    547.68252   -17209.173    802.74234    32838.985 
 3810000    298.74566   -19607.127    547.68323   -17100.038    733.45202    32966.468 
 3820000    303.32637   -19532.767    547.68726    -16995.63   -659.18922     33199.62 
 3830000    308.93895   -19529.592    547.68527   -16955.645   -29.386368    33175.653 
 3840000    289.16629   -19632.125    547.68309   -17187.865    560.25345    32952.548 
 3850000    290.78274   -19652.574     547.6832   -17197.712    548.98511    32890.629 
 3860000    287.56002   -19660.795    547.68037   -17227.073    234.99925    32599.939 
 3870000    303.10788   -19520.394    547.68126   -16984.696    231.02337    32948.784 
 3880000    298.96473   -19605.647    547.67405   -17097.131    471.50325    32852.428 
 3890000    301.00264   -19597.847     547.6749   -17075.963   -110.49554     33145.67 
 3900000    297.60999   -19693.811    547.68404    -17194.17    301.31224    32566.013 
 3910000    287.01368   -19593.346     547.6781   -17163.209   -515.91935    32946.737 
 3920000    302.81427   -19695.245    547.67817   -17161.476   -1100.2078    33303.924 
 3930000    291.75355     -19631.1    547.67783   -17169.876    209.01917    32660.103 
 3940000    302.39659     -19631.9    547.68021   -17100.868   -229.04627    32780.603 
 3950000    298.59652   -19629.981     547.6795   -17123.874    926.87254    32570.544 
 3960000    295.17578   -19657.659    547.67629   -17173.991   -351.18267    33168.156 
 3970000    306.16379   -19712.712     547.6804   -17156.972   -221.09004    32930.142 
 3980000     303.4118   -19567.792     547.6854   -17030.097   -901.75162     32912.24 
 3990000    298.89607   -19585.213    547.68159   -17077.139   -783.43626    32982.804 
 4000000    294.04435   -19658.194    547.67898   -17181.944   -968.45008    32692.065 
 4010000     294.2921   -19676.531    547.68089   -17198.654   -895.35911    32863.374 
 4020000    297.48687   -19682.241    547.68364   -17183.408    297.19826    32833.323 
 4030000     298.3665   -19692.289    547.67738   -17187.693    941.45714    32961.292 
 4040000    290.15132   -19642.789    547.68114    -17192.07   -758.91695    33188.404 
 4050000    291.59378   -19700.612     547.6827   -17240.431    948.30207    32740.167 
 4060000    296.19989   -19632.219    547.67797   -17141.833    -47.44543    32359.933 
 4070000    297.20146   -19496.561     547.6803   -16999.603   -314.62348    33124.729 
 4080000    300.71144    -19530.99    547.67867   -17011.013   -188.09824    33122.765 
 4090000    302.64308   -19579.742    547.68086   -17047.093   -462.19863    32894.819 
 4100000    301.64552   -19575.979    547.68393    -17049.87     162.2788    32582.825 
 4110000    301.66389    -19588.13     547.6797   -17061.904    675.70498    32646.997 
 4120000    295.48571   -19635.551    547.67715    -17149.85    286.86864    32963.439 
 4130000    297.29432   -19601.389    547.68766   -17103.814   -919.64751    33008.981 
 4140000    291.36739   -19533.643    547.68691   -17074.943    152.65678    33573.424 
 4150000    300.65827   -19580.096     547.6702   -17060.476    995.48934    32780.346 
 4160000     295.4857   -19767.505    547.68668   -17281.794    468.76602    32630.477 
 4170000    301.05127   -19539.523    547.74694   -17017.248     60.97354    32882.453 
 4180000     298.4975   -19757.385    547.66166   -17251.946   -232.72531    32794.619 
 4190000    303.10046    -19586.24    547.68273    -17050.59   -195.36345    33000.314 
 4200000    302.69158   -19633.925    547.67775   -17100.961     451.5785    32436.375 
 4210000    297.98236   -19607.558    547.67855    -17105.48    4.8520541    32869.957 
 4220000    298.28116   -19648.644    547.68062   -17144.604   -408.71801    32587.519 
 4230000    304.90669   -19611.604    547.68114   -17064.108    841.79251    32907.162 
 4240000    290.43048   -19604.468    547.66692   -17151.933   -627.56387    32738.357 
 4250000    291.03418   -19592.888    547.68281   -17136.378   -812.80888    32945.649 
 4260000    294.59613   -19630.732    547.68026   -17150.862    492.23439    33143.944 
 4270000    302.01222   -19662.308    547.69068   -17133.787   -676.86873    33118.417 
 4280000    308.78244   -19615.841    547.68421   -17042.922   -186.97575    32816.277 
 4290000    300.52812    -19630.54    547.68275   -17111.761    506.58751    32767.632 
 4300000    289.64999   -19546.833    547.68218   -17099.402   -429.02136    33116.529 
 4310000    297.37009   -19634.714    547.69479   -17136.636   -513.16014    33243.861 
 4320000    300.05735   -19682.361    547.67881   -17166.673   -457.10646    33275.707 
 4330000    297.51778   -19707.677    547.68106   -17208.644   -942.96771    33181.938 
 4340000    303.30465   -19649.552    547.68329   -17112.561   -113.48902    32762.042 
 4350000    297.47839   -19617.787    547.68417   -17119.008    788.43269    32754.977 
 4360000    300.08783   -19614.763    547.68785   -17098.866   -903.86393    32900.853 
 4370000    295.29021   -19648.857    547.67805   -17164.437    722.42627    32767.988 
 4380000    300.80482   -19576.486    547.67836   -17055.896    -97.70353    32654.823 
 4390000    311.46387   -19605.191     547.6797    -17014.69    0.3220405    32921.377 
 4400000    298.02035   -19558.784    547.68199   -17056.453   -214.11892    33063.005 
 4410000    299.41542   -19670.917    547.68189   -17159.437   -162.77793    32941.993 
 4420000    299.19244   -19608.855    547.72054   -17098.798    391.37369    32749.058 
 4430000     299.0494   -19623.318    547.67631   -17114.243   -705.86533    32938.143 
 4440000    291.72392   -19494.007    547.68381   -17032.972    343.90605    33025.455 
 4450000    296.83741   -19619.719    547.66832   -17125.161   -616.16494    33115.762 
 4460000    295.90904   -19633.829    547.68774    -17145.34    328.39263    33083.723 
 4470000    303.86999   -19683.376     547.6767   -17142.685   -423.56821    33451.178 
 4480000    299.25603   -19558.999    547.68323   -17048.563    433.51898    32775.707 
 4490000      307.788   -19591.647    547.68006   -17025.255    709.20695    32716.399 
 4500000    297.68928    -19696.42    547.67665   -17196.266    117.26508    33054.437 
 4510000    303.50069   -19686.905    547.66311   -17148.649   -449.68929    33479.984 
 4520000    307.75797   -19537.168    547.71565   -16970.936    426.82136    33223.838 
 4530000    296.91094   -19517.022    547.67928   -17021.971   -411.17388    32988.529 
 4540000      285.215   -19684.312    547.67952   -17265.972   -495.95907    32646.862 
 4550000    304.08197   -19594.483    547.68091   -17052.396   -630.65621    32871.057 
 4560000    298.82609   -19589.055    547.67736   -17081.444   -750.10278    33241.671 
 4570000      289.549   -19603.003    547.68317   -17156.233   -907.72946    32491.132 
 4580000     303.5027   -19638.245    547.68102   -17099.957    381.80683    32731.896 
 4590000    294.61259   -19650.909    547.68226   -17170.929    586.23364     32830.51 
 4600000    291.47876   -19640.544    547.74236   -17181.057   -935.71754    33093.773 
 4610000    292.99703   -19625.788    547.67868   -17156.407    108.56527      32756.7 
 4620000    288.78079   -19605.496    547.68449   -17163.763    277.99857    33065.823 
 4630000    292.45599   -19724.999    547.67786   -17259.168    663.72857    32904.061 
 4640000    289.60439   -19603.816    547.67236   -17156.693    748.95841    32777.636 
 4650000    298.54229   -19602.455    547.68207   -17096.701   -677.70431    33200.245 
 4660000    290.97783   -19593.835    547.66597   -17137.711   -407.41599    32586.042 
 4670000    303.01814    -19730.88    547.69362   -17195.758    638.05598    32335.274 
 4680000    303.52181   -19744.956    547.67932   -17206.545    152.72059    33188.779 
 4690000    297.74409   -19648.804     547.6794   -17148.288    398.01173     32617.74 
 4700000    293.29742   -19721.883    547.67959   -17250.532    547.52532    32557.465 
 4710000    301.54986   -19763.285    547.67856   -17237.809   -567.95382    32558.313 
 4720000    299.27081   -19587.048    547.71799    -17076.48    1164.8332    32562.589 
 4730000    303.47757   -19601.091    547.67868   -17062.971    25.062711    32790.356 
 4740000    297.28484   -19645.986    547.68636   -17148.475   -979.31677    32905.871 
 4750000    295.08826   -19521.156    547.67936   -17038.059   -164.87839    32998.175 
 4760000    292.41636   -19571.867      547.681   -17106.292    161.16199        32977 
 4770000    300.02981   -19566.865    547.67891   -17051.358    101.58334    32897.592 
 4780000    303.70235    -19555.69    547.68103   -17016.094    73.423906    32962.615 
 4790000    293.70539    -19619.57    547.67598   -17145.546   -307.02093    33268.734 
 4800000    299.03507   -19526.235    547.67681   -17017.254   -361.19824    33472.411 
 4810000    286.62359   -19609.748    547.69617   -17182.152   -437.24131    32592.831 
 4820000    295.88366   -19518.364    547.67615   -17030.054   -556.63998    32839.803 
 4830000    311.55488   -19658.293    547.68058   -17067.193   -234.43805      33204.3 
 4840000       299.41   -19625.672    547.68119   -17114.228    188.77765    32990.415 
 4850000    296.13407   -19628.075    547.67525   -17138.123    673.85383    32771.457 
 4860000      301.694   -19623.093    547.68036    -17096.67    426.08615    32648.548 
 4870000    294.80168   -19726.075    547.67964   -17244.857    540.96961    32575.793 
 4880000    293.97682   -19612.813    547.67589   -17137.009    154.74207    32867.599 
 4890000    293.50057   -19522.666    547.65219    -17050.01   -114.72843    33241.659 
 4900000    294.26398   -19498.477    547.65295   -17020.813   -273.37778    33039.193 
 4910000    303.68396   -19516.912    547.66501   -16977.452    224.25183    32745.783 
 4920000      295.372   -19593.438    547.68026   -17108.479    541.07327     32863.77 
 4930000     299.3634   -19632.975    547.68257   -17121.835       127.84    32614.063 
 4940000    293.86738   -19662.588    547.67749     -17187.5    531.95032    32904.412 
 4950000    303.72434   -19664.361    547.67245   -17124.629   -74.771917    32903.352 
 4960000    299.91461   -19778.668    547.57418   -17264.021   -6.4671609    32778.782 
 4970000    297.25556   -19614.127    547.68103   -17116.813    102.38943    33336.843 
 4980000    291.24065   -19647.192    547.68445   -17189.325   -62.256231    32651.454 
 4990000    298.57625   -19689.957    547.68134   -17183.981    -106.2212    33122.448 
 5000000    301.17225   -19514.322    547.68038    -16991.32   -183.40776    33331.198 
Loop time of 7301.75 on 128 procs for 5000000 steps with 3384 atoms

Performance: 59.164 ns/day, 0.406 hours/ns, 684.768 timesteps/s
99.3% CPU use with 128 MPI tasks x no OpenMP threads

MPI task timing breakdown:
Section |  min time  |  avg time  |  max time  |%varavg| %total
---------------------------------------------------------------
Pair    | 1371.4     | 1657.6     | 1937.7     | 326.4 | 22.70
Bond    | 5.483      | 5.8981     | 6.3901     |   6.9 |  0.08
Kspace  | 2195.4     | 2465.7     | 2720.8     | 259.4 | 33.77
Neigh   | 213.92     | 223.79     | 234.32     |  56.2 |  3.06
Comm    | 586.58     | 658.89     | 739.28     | 138.7 |  9.02
Output  | 0.056639   | 0.057263   | 0.058202   |   0.2 |  0.00
Modify  | 2151.3     | 2202.4     | 2237.6     |  42.5 | 30.16
Other   |            | 87.39      |            |       |  1.20

Nlocal:    26.4375 ave 36 max 18 min
Histogram: 2 4 13 26 24 28 23 6 0 2
Nghost:    3076.8 ave 3110 max 3043 min
Histogram: 5 7 12 12 21 31 13 18 7 2
Neighs:    10477.8 ave 14555 max 6770 min
Histogram: 2 8 12 22 29 23 18 6 5 3

Total # of neighbors = 1341163
Ave neighs/atom = 396.325
Ave special neighs/atom = 2.12766
Neighbor list builds = 573030
Dangerous builds = 0
reset_timestep 0

#################### 2) Obtaining average volume in NPT ######################
# Getting the average volume of the system
variable Volume equal vol
fix VoluAve all ave/time 1 ${Npnpt} ${Npnpt} v_Volume file volume.dat
fix VoluAve all ave/time 1 5000000 ${Npnpt} v_Volume file volume.dat
fix VoluAve all ave/time 1 5000000 5000000 v_Volume file volume.dat

variable TotEn1 equal etotal
fix TEAve1 all ave/time ${Ne} ${Nr} ${Nf} v_TotEn1 file TotalENPT.dat
fix TEAve1 all ave/time 10 ${Nr} ${Nf} v_TotEn1 file TotalENPT.dat
fix TEAve1 all ave/time 10 1000 ${Nf} v_TotEn1 file TotalENPT.dat
fix TEAve1 all ave/time 10 1000 10000 v_TotEn1 file TotalENPT.dat

variable PotEn1 equal pe
fix PEAve1 all ave/time ${Ne} ${Nr} ${Nf} v_PotEn1 file PotenENPT.dat
fix PEAve1 all ave/time 10 ${Nr} ${Nf} v_PotEn1 file PotenENPT.dat
fix PEAve1 all ave/time 10 1000 ${Nf} v_PotEn1 file PotenENPT.dat
fix PEAve1 all ave/time 10 1000 10000 v_PotEn1 file PotenENPT.dat

compute T1 all temp
fix TempAve1 all ave/time ${Ne} ${Nr} ${Nf} c_T1 file temperatureNPT.dat
fix TempAve1 all ave/time 10 ${Nr} ${Nf} c_T1 file temperatureNPT.dat
fix TempAve1 all ave/time 10 1000 ${Nf} c_T1 file temperatureNPT.dat
fix TempAve1 all ave/time 10 1000 10000 c_T1 file temperatureNPT.dat

compute P1 all pressure T1
fix PressAve1 all ave/time ${Ne} ${Nr} ${Nf} c_P1 file pressureNPT.dat
fix PressAve1 all ave/time 10 ${Nr} ${Nf} c_P1 file pressureNPT.dat
fix PressAve1 all ave/time 10 1000 ${Nf} c_P1 file pressureNPT.dat
fix PressAve1 all ave/time 10 1000 10000 c_P1 file pressureNPT.dat



run ${Npnpt}
run 5000000
PPPM initialization ...
  extracting TIP4P info from pair style
  using 12-bit tables for long-range coulomb (../kspace.cpp:321)
  G vector (1/distance) = 0.314704
  grid = 32 32 32
  stencil order = 5
  estimated absolute RMS force accuracy = 0.00336287
  estimated relative force accuracy = 1.01272e-05
  using double precision FFTs
  3d grid and FFT values/proc = 2475 256
Per MPI rank memory allocation (min/avg/max) = 14.1 | 14.1 | 14.11 Mbytes
Step Temp E_pair E_mol TotEng Press Volume 
       0    301.17225   -19514.321    547.68038    -16991.32    427.92798    33331.198 
   10000    301.46848    -19540.38    547.68227   -17015.434    143.77662    32882.347 
   20000    311.96611   -19654.912    547.67915   -17061.117   -236.72756    32782.402 
   30000    299.19419   -19661.407    547.68018   -17151.379     982.8169    32741.748 
   40000      288.478   -19582.639    547.68437   -17142.893   -432.82149    32967.268 
   50000    291.12348   -19648.235    547.68135    -17191.14    132.78415    33202.503 
   60000    302.96716   -19617.302    547.68009   -17082.529    1085.6398    32650.339 
   70000     302.2706   -19672.413    547.67995   -17142.208    816.82258    32527.147 
   80000    299.09294   -19584.806    547.67959   -17075.443    16.173429    32966.562 
   90000    293.85567   -19588.525    547.68778   -17113.504    113.90098    32783.095 
  100000    304.89011   -19632.726    547.67871   -17085.342    976.33414    32659.128 
  110000    293.65422   -19630.535    547.68037   -17156.843   -838.74448    32996.197 
  120000     291.9663    -19581.72    547.68844    -17119.09   -305.38144    32719.536 
  130000    300.08655   -19578.399     547.6813   -17062.517   -40.592692    33031.566 
  140000    299.09654    -19543.59    547.67826   -17034.205    1228.3767    32755.803 
  150000    298.96346   -19637.969    547.66708   -17129.468    709.70931    32344.109 
  160000    288.74087    -19657.78     547.6603   -17216.333   -1068.7173    33031.565 
  170000    290.81875   -19665.593    547.68146   -17210.496    -181.3934      32962.8 
  180000    294.55424   -19652.665    547.69018   -17173.059    559.35427     32926.98 
  190000    296.18909   -19659.155    547.67839   -17168.839    915.36726    32229.973 
  200000     289.5988   -19548.252    547.68385   -17101.155    289.72774        32914 
  210000    300.54758   -19746.927    547.68088   -17228.022   -43.918118    32788.572 
  220000     302.5523   -19679.386    547.67744   -17147.336   -706.25382    33054.382 
  230000    299.50648   -19706.048    547.68462   -17193.967   -173.83076    32994.598 
  240000    297.77516   -19611.532    547.68073   -17110.811   -191.70473    32856.038 
  250000    302.84525   -19635.781    547.69074   -17101.796   -15.268256    32872.832 
  260000    306.05288   -19653.707     547.6836   -17098.691    522.48355    32732.581 
  270000    296.30164   -19594.435    547.67849   -17103.381    608.70418    32751.275 
  280000    305.75178   -19687.598    547.68221   -17134.559    75.512696    32896.526 
  290000    299.51029   -19658.154    547.68377    -17146.05    158.28322    33115.879 
  300000    300.36249   -19614.221    547.67713   -17096.533    250.84331    32693.713 
  310000    285.49662   -19592.908     547.6782   -17172.721       966.64    33129.517 
  320000    291.07135   -19565.396    547.67673   -17108.648    37.679477     33007.94 
  330000    314.90724   -19660.933    547.67976   -17047.847   -736.47566    33002.872 
  340000    288.27468    -19655.99    547.68218   -17217.578   -45.864439     32777.85 
  350000    292.68462   -19507.604    547.68302   -17040.268    89.110806    33292.506 
  360000    293.27525   -19554.385    547.67887   -17083.179    169.48213    32930.043 
  370000     291.9452   -19571.016    547.68038   -17108.533     35.22459    32713.068 
  380000    305.78831   -19570.374    547.68107   -17017.096   -183.55966    32852.936 
  390000    302.44208   -19613.473     547.6815   -17082.141   -334.95841     33165.14 
  400000    294.57851   -19578.596      547.684   -17098.837   -211.26971    33163.941 
  410000    307.75818   -19656.578    547.67945   -17090.382   -448.56598    32997.132 
  420000    294.75295   -19627.657    547.67886   -17146.759    251.82718    32854.074 
  430000    294.55116   -19732.789    547.68122   -17253.212    161.38627    32751.752 
  440000    295.87561   -19609.007    547.67797   -17120.748    262.75333     32834.36 
  450000    294.22229   -19593.311    547.68142   -17115.891    152.90985    32901.347 
  460000    290.42829   -19685.571    547.69076   -17233.027    602.76847    32806.395 
  470000    299.93685   -19633.519    547.68033    -17118.62    868.41425    32591.804 
  480000    293.93719   -19676.731    547.68164   -17201.182   -131.94612    32316.182 
  490000     305.5256   -19548.314    547.68299   -16996.757    100.73372    32937.229 
  500000    297.45355   -19423.364    547.67915   -16924.754    479.15919    33193.359 
  510000     297.4638   -19568.884    547.67967   -17070.206   -32.529138    32788.861 
  520000    302.14845   -19579.536    547.68021   -17050.132    1265.2718    32809.196 
  530000    299.43855   -19603.457    547.68052   -17091.826    335.05425    32944.827 
  540000    298.42023   -19633.836    547.68111   -17128.883   -739.12891    32786.603 
  550000     300.3538   -19617.125     547.6777   -17099.494    156.74167    32532.618 
  560000    295.30309    -19654.92    547.67779   -17170.415   -398.46544    33175.559 
  570000    300.30722   -19711.966    547.67706   -17194.641   -404.38669    32875.554 
  580000    303.11028   -19624.033    547.68066    -17088.32   -868.94752    33203.031 
  590000    294.75399   -19643.643    547.68351   -17162.734    81.140766    32775.408 
  600000    299.83099   -19622.685     547.6918   -17108.469   -57.753135    32753.068 
  610000    301.85793   -19737.905    547.68301   -17210.404   -237.32567    32678.932 
  620000    299.60353   -19677.861    547.68002   -17165.149   -443.50924    32855.441 
  630000    303.83176   -19690.998    547.68445   -17150.549    660.53265    32766.497 
  640000    289.00576   -19663.574    547.68034    -17220.37   -209.22964    33076.738 
  650000    295.46884   -19534.445    547.67898   -17048.852    209.26339    32803.801 
  660000     289.6323   -19626.198    547.68003   -17178.885   -1065.3469     32964.93 
  670000     295.0825    -19587.53    547.68398   -17104.466    -330.1874    33201.473 
  680000    294.43615   -19521.852    547.68358   -17043.028   -610.72272    33108.463 
  690000    299.02658   -19561.668    547.67544   -17052.745   -632.35759    32824.961 
  700000    294.74984   -19485.407    547.69177   -17004.517   -186.49974    32824.355 
  710000    292.35883   -19514.018    547.67691   -17048.825    943.74566     32933.97 
  720000    298.70576   -19639.537    547.67926   -17132.714   -522.16347    32946.219 
  730000    292.73721   -19480.547    547.68112   -17012.868    1211.2348    32943.302 
  740000    298.67887    -19662.78    547.67977   -17156.133    212.16878    32861.941 
  750000    296.22824   -19676.814    547.68058   -17186.239   -506.17062    32856.249 
  760000    293.80381   -19640.414    547.67487   -17165.746    85.109778    32593.022 
  770000    306.83158   -19749.306    547.68784   -17189.179    445.75783    32688.619 
  780000    301.64286   -19564.085    547.68181   -17037.995   -450.02488    32734.472 
  790000    292.19981   -19627.448    547.68676   -17163.289    29.710556    32929.526 
  800000    302.98416    -19548.71    547.68867   -17013.816    596.79879    33096.265 
  810000    299.99652    -19559.48     547.6771   -17044.193   -938.90487    33247.669 
  820000    291.72115    -19570.17    547.67955   -17109.156   -396.49876    33044.569 
  830000    306.09431   -19680.288    547.66768   -17125.016   -443.36869    32973.934 
  840000    302.22268   -19610.125    547.68025   -17080.234    388.28121    33050.281 
  850000    292.77232   -19580.694    547.68454   -17112.782    225.74065     32874.57 
  860000    295.94708   -19489.151    547.68411   -17000.417    35.337046    33064.702 
  870000    290.34377   -19591.581    547.68101     -17139.6   -287.30605    32637.817 
  880000    299.90545   -19721.343    547.71104   -17206.619   -290.74445    33071.983 
  890000    292.50428   -19598.783    547.68007   -17132.633    925.20013    32640.426 
  900000    290.14147   -19629.001    547.68154   -17178.347    97.512005    33015.137 
  910000    292.13958   -19599.851    547.67821   -17136.095   -307.83902    33067.413 
  920000    293.42323   -19602.004    547.67725    -17129.83    137.41248    33293.746 
  930000    305.82143    -19557.26    547.68641    -17003.76   -340.88268    32869.694 
  940000     298.2345   -19646.431    547.68005   -17142.698    -307.6662    32756.529 
  950000    294.26693   -19670.044      547.683    -17192.33   -979.12381     33136.52 
  960000    309.22894    -19666.39    547.67748   -17090.549     343.6013      32896.3 
  970000    299.50388   -19580.248    547.68104   -17068.188    -344.2493    33030.933 
  980000    301.16617   -19537.379    547.67774    -17014.42    -408.4596    33093.161 
  990000    298.39451   -19646.785    547.65855   -17142.024     746.3808    32761.346 
 1000000    286.64594   -19631.067    547.68346   -17203.337    399.74142    33083.612 
 1010000      296.557   -19545.098    547.66692    -17052.38   -163.12604    33259.709 
 1020000    294.65753   -19606.598    547.68255   -17126.322    737.84701    32742.986 
 1030000    303.38577   -19699.308    547.68272   -17161.786   -431.44582    32660.087 
 1040000    294.48216   -19563.647    547.68004   -17084.524   -800.51807    33258.909 
 1050000    290.74648   -19692.384    547.67031   -17237.773    297.44647     32820.98 
 1060000    297.31956   -19648.456    547.68112   -17150.723     216.8178    33068.317 
 1070000    295.60804   -19642.303    547.69251   -17155.784    62.779853    32803.958 
 1080000    297.28367   -19593.896    547.67876     -17096.4    341.31417    32767.127 
 1090000    296.36195   -19620.087    547.67913   -17128.636   -628.04627    32655.404 
 1100000    293.05347   -19490.002    547.67735   -17020.253     149.9343    32847.136 
 1110000     294.2392   -19654.324    547.68508    -17176.79   -20.307141    32898.298 
 1120000    295.06903   -19644.441     547.6784   -17161.471    559.66596    32603.558 
 1130000    303.43061   -19697.339    547.68273   -17159.523    744.85589    32085.195 
 1140000    304.80256   -19722.249    547.68271   -17175.435    181.65231    32786.584 
 1150000     295.5927   -19671.238    547.68542   -17184.826   -721.72306    32781.928 
 1160000    298.57611   -19649.288    547.67734   -17143.317   -1062.6617    32945.249 
 1170000    300.43343   -19514.232    547.64735   -16996.109   -444.74156    33065.187 
 1180000    290.20288   -19641.992    547.67395   -17190.942   -514.69545    32808.794 
 1190000    302.62077   -19666.883    547.70479   -17134.356   -593.49563     32873.34 
 1200000    299.10429   -19655.786     547.6786   -17146.349    -86.45361    32943.808 
 1210000    308.81284   -19532.552    547.68215   -16959.436    156.85242      33083.9 
 1220000    291.67549   -19590.519    547.68177   -17129.803    188.96456    33130.352 
 1230000    294.00594   -19669.292    547.68025   -17193.292    -719.6594    32931.096 
 1240000    292.38946     -19606.2      547.673    -17140.81   -267.29063    32985.274 
 1250000    299.45276   -19727.128    547.68383   -17215.401    314.31398    32564.564 
 1260000    292.07434    -19728.73    547.67895   -17265.401   -437.25859     32792.64 
 1270000    297.41022   -19571.539    547.68396   -17073.208    393.26889    33046.641 
 1280000    298.54264   -19546.434    547.68414   -17040.676   -688.87234     33002.33 
 1290000    299.89956   -19543.561    547.68051   -17028.906   -320.87689    33029.992 
 1300000    301.83177   -19492.741     547.6731   -16965.421   -345.31201    33008.545 
 1310000    297.05039    -19609.45    547.67719   -17113.486   -421.33052    33152.542 
 1320000      286.559    -19648.72    547.68356    -17221.56   -386.76378    32849.602 
 1330000     292.9022   -19587.528    547.68207   -17118.766   -13.528309    32942.208 
 1340000    302.39638   -19647.779    547.69062   -17116.738   -452.12649    32942.982 
 1350000    297.22902   -19622.388    547.67994    -17125.25    486.04353    32803.634 
 1360000    298.43879   -19562.866    547.68129   -17057.792   -318.72953    33381.355 
 1370000    289.45252   -19682.672    547.68158   -17236.536    366.03319    32636.151 
 1380000    307.15121   -19642.414    547.67724   -17080.201     29.73933    32885.884 
 1390000    297.53766   -19513.775    547.67938   -17014.613   -895.54299    33388.719 
 1400000    282.11016   -19659.186    547.67934    -17261.21    -532.7901    33054.961 
 1410000    293.71032   -19657.734    547.67646   -17183.678    16.649394    32748.051 
 1420000    308.63264   -19594.779     547.6806   -17022.846   -102.30038     33055.19 
 1430000    303.77929   -19637.098    547.68087   -17096.997   -1052.8911    33025.059 
 1440000    294.59772   -19599.979    547.68349   -17120.095   -109.08379    32768.719 
 1450000    291.27629    -19643.67    547.67798   -17185.576    308.94608    32784.946 
 1460000     295.7973   -19653.254    547.68531     -17165.5   -304.19848    32755.196 
 1470000    301.97719   -19550.302    547.68014   -17022.021    268.20994    33110.344 
 1480000    295.03733   -19680.477    547.68289   -17197.711    254.03739    32604.757 
 1490000    305.43097   -19623.093    547.68207   -17072.157    326.41097    32976.881 
 1500000    297.87214   -19617.861    547.69378   -17116.491    186.90761    33082.028 
 1510000    306.04269   -19535.892    547.68132   -16980.945    278.11758    32952.153 
 1520000    298.38592   -19635.686    547.67858   -17130.962    173.25748    32669.896 
 1530000    298.25542   -19561.649    547.69053   -17057.768   -189.25746     33052.58 
 1540000    294.42392   -19659.336    547.68126   -17180.595    4.0923218    32578.549 
 1550000    300.57021   -19648.429    547.68039   -17129.376   -639.97596    32724.894 
 1560000    291.33807   -19586.052    547.67922   -17127.551   -10.833158     33009.47 
[...]
18160000    288.20493    296.94788    423.47105    66.324668   -18713.103    1890.2715   -16822.832 
18170000    293.33632    297.65016    847.83421    137.89517    -18764.28    1923.9271   -16840.353 
18180000    301.49166    297.69237   -41.077783    11.592868   -18706.829    1977.4162   -16729.413 
18190000    298.63744    297.85171    209.05749    89.460615   -18697.407     1958.696   -16738.711 
18200000    290.75792    297.24763    712.84964    166.28957   -18737.148     1907.016   -16830.132 
18210000    303.87004    297.31812    166.89897   -66.312042   -18769.164    1993.0154   -16776.148 
18220000    295.75797    298.07597   -451.81324   -107.86383   -18661.781    1939.8102   -16721.971 
18230000    293.56675    297.03249    47.792975   -66.164254   -18715.082    1925.4385   -16789.643 
18240000    295.10911    297.62657    34.092016     74.46067   -18698.713    1935.5545   -16763.158 
18250000    287.62697    297.45103   -1056.0836    73.898219   -18700.544    1886.4808   -16814.063 
18260000    301.45596    297.48695   -207.75879   -62.397139    -18724.56    1977.1821   -16747.378 
18270000    305.10188    297.34677    222.87025    412.89861   -18740.003    2001.0948   -16738.908 
18280000    297.75497    297.97759    -985.0589   -68.060636   -18715.078    1952.9081    -16762.17 
18290000    296.90483    297.14579     155.3446   -87.792278   -18786.288    1947.3322   -16838.956 
18300000    299.44697     297.5052    553.04364   -99.897232    -18755.58    1964.0055   -16791.574 
18310000    287.96228    298.25394    283.56588   -31.470809   -18762.972      1888.68   -16874.292 
18320000    293.73488    297.31114   -434.81716   -174.94755   -18641.437    1926.5412   -16714.896 
18330000    301.57251    296.85624    153.91193   -94.190073   -18731.824    1977.9465   -16753.877 
18340000    299.31156    297.41771   -59.678963     147.0688   -18782.795    1963.1174   -16819.678 
18350000    297.18204    297.96027    -133.0801    30.495787   -18751.305    1949.1503   -16802.155 
18360000    295.24928    298.27938    158.37935    73.950643   -18686.336    1936.4738   -16749.862 
18370000    302.64538    297.90487    440.03042    20.519689   -18710.572    1984.9831   -16725.589 
18380000    294.64527    297.52301    613.21545     122.7902   -18835.183    1932.5122   -16902.671 
18390000    296.08077    297.71765    145.21744     212.1759   -18696.567    1941.9274   -16754.639 
18400000    301.68637    297.94694    387.73004    97.465166   -18777.889    1978.6932   -16799.195 
18410000    298.65229    297.82358    408.57002     90.64322   -18732.819    1958.7934   -16774.025 
18420000    288.52455    296.79457   -547.50153  -0.44590883   -18701.918    1892.3678    -16809.55 
18430000    297.41737    297.34713   -28.820583    68.316108   -18701.344    1950.6938    -16750.65 
18440000    305.60677    297.36302    495.19942    198.89117   -18757.382    2004.4063   -16752.976 
18450000     290.5251    297.31307    343.68102   -12.216243   -18616.441     1905.489   -16710.952 
18460000    298.35207    297.36692    509.59731    167.82239   -18741.965    1956.8243    -16785.14 
18470000    299.57822    297.77783    544.68738    13.994569   -18751.061    1964.8663   -16786.195 
18480000    296.55536    297.25311    48.186784    76.813873   -18675.458    1945.0401   -16730.418 
18490000     297.1594    297.41581    104.56227   -9.6177375   -18777.394    1949.0019   -16828.392 
18500000    302.03901    298.06335    78.512373   -101.57036   -18602.487    1981.0061   -16621.481 
18510000    299.46382    297.75089    506.45796   -8.5574628   -18668.361    1964.1161   -16704.245 
18520000    299.70483    297.68755     56.61042   -42.747279    -18702.38    1965.6967   -16736.683 
18530000    293.79828    297.17647    385.59719    139.83739   -18724.094     1926.957   -16797.137 
18540000    296.63273    296.98256   -399.75707    163.65525   -18718.202    1945.5476   -16772.654 
18550000     303.9471    297.82964   -475.69242    3.6734891   -18703.745    1993.5209   -16710.224 
18560000    301.55767    297.98566   -850.49894   -18.181438   -18672.149    1977.8491     -16694.3 
18570000    297.41382    297.19977   -769.56733    1.0759198   -18788.577    1950.6705   -16837.907 
18580000    297.13755    296.87999    119.44666    81.237781   -18735.056    1948.8586   -16786.197 
18590000    295.14793    297.78826   -154.97351   -65.832922   -18791.372    1935.8091   -16855.563 
18600000    295.86751     297.8269   -499.42938   -54.963229   -18711.606    1940.5287   -16771.078 
18610000     297.9118     297.6218   -28.999712   -201.81415   -18666.746    1953.9367   -16712.809 
18620000    293.55294    297.30544   -322.29689   -4.8452869   -18771.666    1925.3479   -16846.318 
18630000    296.55615    298.00071    282.62728    -94.88274   -18745.695    1945.0453   -16800.649 
18640000    294.26385    297.31866    329.38261    21.314456    -18699.75    1930.0106    -16769.74 
18650000     296.5295    297.57232   -610.60491   -89.052133   -18748.187    1944.8705   -16803.316 
18660000     297.5769    296.97774     236.3282    3.6868099   -18776.263    1951.7401   -16824.523 
18670000    292.16542    297.89265    -332.5097    17.053976   -18800.377    1916.2474   -16884.129 
18680000    299.35036    297.65426    529.13141   -0.5553649   -18592.508    1963.3719   -16629.137 
18690000    295.98367    297.53451    201.49264    27.151543   -18770.249    1941.2905   -16828.958 
18700000     283.4457    296.91663   -338.25073   -15.608535   -18693.887    1859.0568    -16834.83 
18710000    293.60663    297.23305    -575.9271    48.992042   -18729.312    1925.7001   -16803.612 
18720000    291.83559    298.44316    54.763347    133.30345   -18681.953    1914.0842   -16767.869 
18730000    291.49356     297.3141   -402.86703   -8.4304777   -18696.281    1911.8409    -16784.44 
18740000    301.98701    297.69186    1024.7579    82.068241   -18650.244    1980.6651   -16669.579 
18750000    299.18841      297.592    -176.7688     99.02678    -18704.52    1962.3097    -16742.21 
18760000    299.25076    297.67774   -183.78451    116.02479   -18808.646    1962.7186   -16845.927 
18770000    300.18422    297.52599   -337.62905    1.8392511   -18705.119     1968.841   -16736.278 
18780000    296.86765    298.04203   -93.343849    216.49426   -18762.506    1947.0883   -16815.418 
18790000    287.84925    297.06287   -721.49395   -63.710676   -18703.887    1887.9387   -16815.948 
18800000     292.1355    297.84804   -492.49355   -122.79306   -18705.605    1916.0512   -16789.553 
18810000    297.15734    297.60111    602.30756   -32.511599   -18674.073    1948.9884   -16725.085 
18820000    301.39476    297.61075   -339.30074    78.652056   -18660.392    1976.7806   -16683.612 
18830000    299.36725    297.78291    -608.2581    16.879681   -18666.939    1963.4827   -16703.456 
18840000    300.82446    298.56921    437.13797    172.50269   -18651.884    1973.0402   -16678.844 
18850000    301.82765    297.01913   -659.40154   -23.983776   -18757.608    1979.6199   -16777.988 
18860000    304.65856    298.03094    -100.9339   -26.879138   -18652.351    1998.1871   -16654.164 
18870000    303.89026    297.44068    460.60798   -230.62365   -18610.724     1993.148   -16617.576 
18880000    292.15999    297.44108   -373.06423   -122.88551   -18755.618    1916.2119   -16839.406 
18890000    298.98203    297.62399   -488.76616    96.411903   -18733.562    1960.9561   -16772.606 
18900000    300.63476    297.75623    125.74539    8.5755068   -18701.102    1971.7959   -16729.306 
18910000    295.69842    297.47013   -108.80481   -104.69741   -18690.857    1939.4196   -16751.437 
18920000    288.88303     297.9295   -564.34354    125.87161   -18699.699     1894.719    -16804.98 
18930000    293.41267    297.59692   -658.68752   -54.616825   -18648.098    1924.4279    -16723.67 
18940000    301.70021    297.70157    522.29738   -79.186893   -18723.161     1978.784   -16744.377 
18950000    307.00559    297.96285   -85.855521   -4.6848995   -18740.878    2013.5808   -16727.297 
18960000    297.62784    297.52449    74.014077   -10.204598   -18757.574    1952.0742     -16805.5 
18970000    299.18379    297.33373    552.74721    71.656658   -18721.222    1962.2794   -16758.943 
18980000    300.89057    297.22412   -339.53963    141.05219   -18741.883    1973.4738    -16768.41 
18990000    289.50576    297.16102    125.26189   -124.94743   -18721.709    1898.8033   -16822.905 
19000000    292.02072    297.82698    821.95841    38.303995   -18725.356    1915.2984   -16810.057 
19010000    301.40228    297.50814   -118.66922    142.09353   -18713.727    1976.8299   -16736.897 
19020000    305.37874    297.80837   -159.99481    120.61323   -18624.634    2002.9107   -16621.723 
19030000    304.41947    296.92134   -646.46764    50.699527   -18785.522     1996.619   -16788.903 
19040000    298.99982    297.91215    110.56253    330.63391   -18710.794    1961.0728   -16749.721 
19050000    294.52133    297.57332    35.336698    199.26983   -18728.918    1931.6994   -16797.218 
19060000    303.43985    297.60634    187.45587   -32.131395   -18742.682    1990.1939   -16752.488 
19070000    286.12701    297.77702    547.83719    162.75249   -18724.638    1876.6429   -16847.995 
19080000    292.99473     297.5665    266.79273    87.162226    -18741.59    1921.6867   -16819.904 
19090000    293.14738    297.63639    252.24365    23.294379   -18665.165    1922.6879   -16742.477 
19100000    297.41082    297.25539    187.22107    -9.033384   -18806.892    1950.6509   -16856.241 
19110000    308.08172     296.9891    113.55201    70.902202   -18792.962    2020.6389   -16772.323 
19120000    294.69218    297.85994   -32.124953       14.184   -18771.722    1932.8199   -16838.902 
19130000    294.89549    297.76653   -1165.7128   -109.17156   -18691.188    1934.1534   -16757.034 
19140000    299.57982    297.55661   -90.231627   -65.798679   -18765.263    1964.8769   -16800.386 
19150000    292.51819    297.10273    120.37592   -56.064437    -18673.29    1918.5612   -16754.729 
19160000    309.90904    297.70348     755.0967    131.10842   -18603.972    2032.6239   -16571.348 
19170000    297.08134    298.08434   -115.79877    201.38606   -18613.468    1948.4899   -16664.978 
19180000    306.40565    297.60214    808.18553    68.241698   -18777.493     2009.646   -16767.847 
19190000    301.65798    298.31561   -96.918735    33.945516   -18703.632    1978.5071   -16725.125 
19200000    295.73914    297.08269   -257.53161   -39.936765   -18766.688    1939.6867   -16827.002 
19210000    296.55905    297.39331    525.13989   -22.738199   -18652.386    1945.0643   -16707.322 
19220000    294.36875     297.6211   -136.30245   -39.965107   -18803.049    1930.6986    -16872.35 
19230000     300.2199    297.89331   -534.54818   -87.710503   -18765.485     1969.075    -16796.41 
19240000    301.96227    298.53179    379.23993    135.43277    -18742.79    1980.5028   -16762.287 
19250000    297.77851    297.96804     424.4603    48.901906   -18784.792    1953.0625    -16831.73 
19260000    300.48612    297.56824    425.86687    29.580599   -18749.939     1970.821   -16779.118 
19270000     299.2801    297.71954    54.796658   -45.503646   -18693.465    1962.9111   -16730.554 
19280000    301.08218    297.58707   -41.820791    3.1056762   -18734.815    1974.7305   -16760.084 
19290000    304.36958    297.33783   -117.81414   -5.4336992   -18724.633    1996.2918   -16728.341 
19300000    298.84345    297.27951    463.41484   -53.223587   -18729.233    1960.0472   -16769.186 
19310000    298.08753    297.74921   -15.120028     58.41508   -18719.334    1955.0893   -16764.245 
19320000    294.31007    297.33233    493.07904   -48.523391   -18762.427    1930.3137   -16832.113 
19330000    300.36392    297.90914    238.29493    137.13133   -18724.883    1970.0196   -16754.863 
19340000    295.79408    297.72984   -340.35413   -57.181997   -18658.377    1940.0471    -16718.33 
19350000    295.35002    298.45343   -171.10888   -60.958422   -18587.666    1937.1346   -16650.531 
19360000    296.26481    298.24914   -821.01465    -29.07883   -18774.326    1943.1344   -16831.192 
19370000    293.00249    297.43131   -94.818844    25.138325    -18697.82    1921.7376   -16776.082 
19380000    298.69191    298.27125   -229.66303    107.82359   -18723.604    1959.0532   -16764.551 
19390000    291.56988    298.35284    109.83341   -80.848626   -18681.195    1912.3415   -16768.854 
19400000     293.0524    297.71498   -136.69388    29.610815   -18720.734     1922.065   -16798.669 
19410000    293.07766     297.3296    14.971278   -40.360398   -18658.653    1922.2306   -16736.422 
19420000    295.87123    297.70566    765.82386   -20.903047   -18755.737    1940.5531   -16815.184 
19430000    290.66826    297.25797   -564.41646    54.595613   -18796.661    1906.4279   -16890.233 
19440000    299.30501    298.01642   -53.020745    78.378434   -18698.095    1963.0744   -16735.021 
19450000    298.80915     296.7066    251.80656   -3.8679013   -18726.363    1959.8222   -16766.541 
19460000    297.35584    297.93975   -152.00235    147.77132   -18651.171    1950.2903   -16700.881 
19470000    305.90432    297.70073    532.78059    110.58367   -18720.958    2006.3578   -16714.601 
19480000    297.53693    297.50667   -272.73879    136.66176   -18730.147     1951.478   -16778.669 
19490000    300.49515    297.68552     255.3573   -52.165152   -18659.355    1970.8803   -16688.474 
19500000    293.72631    297.14086    203.06561    87.406963   -18770.774     1926.485   -16844.289 
19510000    291.26167    297.80117    650.41326    88.899158   -18619.521      1910.32   -16709.201 
19520000    301.60543    297.48784   -138.43206   -25.017233   -18655.888    1978.1623   -16677.726 
19530000    296.85361    297.18874    282.11241    162.51995   -18749.838    1946.9962   -16802.842 
19540000    301.36719     297.3117    460.20511   -40.909474   -18721.453    1976.5998   -16744.853 
19550000    299.85123    298.03296     698.8824     47.26741   -18655.144    1966.6569   -16688.488 
19560000    305.62428    297.64392   -320.25246    11.612122   -18670.888    2004.5211   -16666.366 
19570000    295.33218    297.40829   -184.67069   -73.968415     -18633.7    1937.0175   -16696.683 
19580000    295.41151    297.87587    656.60585    39.261948   -18732.884    1937.5378   -16795.346 
19590000    284.26091    296.98317    39.387143    69.287705   -18697.502    1864.4036   -16833.099 
19600000    293.93304    297.69622    800.57805    151.62457   -18751.535    1927.8409   -16823.694 
19610000     304.8663     297.5791   -258.86023   -153.00415    -18777.39    1999.5497   -16777.841 
19620000    298.72864    297.07001   -197.28109    250.56098   -18779.854    1959.2941    -16820.56 
19630000    294.54896    297.22688   -406.28972    74.104585   -18689.564    1931.8805   -16757.684 
19640000    292.77534    297.50751   -238.07643   -193.41954   -18713.302    1920.2478   -16793.054 
19650000      299.627    297.51205    410.19944    192.15701   -18747.868    1965.1863   -16782.682 
19660000    297.93832    297.42892    72.474579     126.5892   -18752.783    1954.1106   -16798.672 
19670000     296.7051    297.38535   -309.33128   -42.792679   -18786.687    1946.0222   -16840.664 
19680000    297.74052    297.48632   -471.10473   -173.99921   -18733.396    1952.8133   -16780.582 
19690000    300.57612    297.63377    246.04541   -238.17889   -18702.827    1971.4113   -16731.415 
19700000    295.63642    297.66797   -337.13982   -12.035319   -18626.098     1939.013   -16687.085 
19710000    300.83977    298.38357     463.4038   -20.265019   -18615.506    1973.1406   -16642.366 
19720000    294.41484    297.25337   -344.45302   -79.209774    -18750.89    1931.0009    -16819.89 
19730000    307.09001    297.39191   -196.74632    104.94701   -18664.021    2014.1345   -16649.887 
19740000    289.85558    298.03705   -950.45918   -184.86962   -18761.554    1901.0978   -16860.457 
19750000    290.77054    297.78522   -343.23661   -67.470601   -18785.033    1907.0987   -16877.935 
19760000    302.51144    297.60021    279.57965    70.001903   -18756.294    1984.1047   -16772.189 
19770000    302.67725    296.92443    826.76267    153.73742   -18737.777    1985.1922   -16752.585 
19780000    300.20898    297.36244   -264.65471    6.3541959    -18825.41    1969.0034   -16856.407 
19790000    303.49297    297.72208   -523.19468    53.907769   -18656.255    1990.5423   -16665.713 
19800000    293.88953    297.14547    326.83708     104.5591   -18660.152    1927.5555   -16732.596 
19810000    293.35631    297.41913    48.510916    141.55526    -18758.77    1924.0582   -16834.712 
19820000    299.16243    297.25998    107.75663    57.050089   -18738.152    1962.1393   -16776.012 
19830000    295.29257    298.00883   -311.00155    19.528156   -18739.151    1936.7577   -16802.393 
19840000    296.47815    297.86952    274.55351    9.0187184   -18679.062    1944.5337   -16734.528 
19850000    295.95646    298.17463   -405.42775    103.90707   -18640.475     1941.112   -16699.363 
19860000    293.22629    297.43412   -455.98114    45.949871   -18708.997    1923.2055   -16785.792 
19870000    288.01329    297.39414   -153.13725    70.537494   -18689.011    1889.0146   -16799.996 
19880000    291.40425    296.84208    383.81704    61.233596    -18653.27    1911.2551   -16742.015 
19890000    301.24862    297.69928   -269.09237   -20.789829   -18666.793    1975.8221   -16690.971 
19900000    289.77899     297.1699    -308.7232     1.467587   -18703.303    1900.5954   -16802.708 
19910000     292.5379    297.41459    34.976012     168.3656   -18682.029    1918.6905   -16763.338 
19920000    300.03344    297.73536    363.66932    73.722559   -18735.323     1967.852   -16767.471 
19930000    294.83233    297.44263   -590.73516   -44.922248   -18700.562    1933.7391   -16766.823 
19940000    296.95108    297.17998   -290.09076   -90.086069   -18701.936    1947.6355     -16754.3 
19950000    299.98875    297.93565    396.69534   -31.452294   -18693.612    1967.5589   -16726.053 
19960000    295.89621    297.53083   -351.65633   -3.0691373   -18737.149    1940.7168   -16796.432 
19970000       303.78    297.37041   -311.75638    38.457599   -18791.564    1992.4249   -16799.139 
19980000    291.80127    297.61838   -1173.2032    26.709188   -18646.288    1913.8591   -16732.429 
19990000    297.37244    297.52039    103.87207    161.54153   -18706.053    1950.3991   -16755.654 
20000000    298.86708     298.3925   -10.006863    96.051825    -18672.92    1960.2022   -16712.718 
Loop time of 27705.7 on 128 procs for 20000000 steps with 3384 atoms

Performance: 62.370 ns/day, 0.385 hours/ns, 721.874 timesteps/s
99.3% CPU use with 128 MPI tasks x no OpenMP threads

MPI task timing breakdown:
Section |  min time  |  avg time  |  max time  |%varavg| %total
---------------------------------------------------------------
Pair    | 5168.3     | 6113.6     | 6990.3     | 600.2 | 22.07
Bond    | 21.865     | 22.611     | 24.124     |   9.7 |  0.08
Kspace  | 8740.3     | 9596.3     | 10486      | 472.3 | 34.64
Neigh   | 920.48     | 935.87     | 954.2      |  33.0 |  3.38
Comm    | 2357       | 2570.6     | 2808.7     | 199.8 |  9.28
Output  | 0.99913    | 18.821     | 22.084     |  73.4 |  0.07
Modify  | 8027.7     | 8160.9     | 8277.2     |  72.3 | 29.46
Other   |            | 286.9      |            |       |  1.04

Nlocal:    26.4375 ave 35 max 19 min
Histogram: 6 10 7 28 16 28 15 8 7 3
Nghost:    3100.55 ave 3144 max 3061 min
Histogram: 2 9 10 24 25 22 23 9 2 2
Neighs:    10610.3 ave 14990 max 6320 min
Histogram: 2 3 17 21 25 21 15 17 6 1

Total # of neighbors = 1358119
Ave neighs/atom = 401.335
Ave special neighs/atom = 2.12766
Neighbor list builds = 2377534
Dangerous builds = 0

quit
