3384
Atoms. Timestep: 0
O 13.4274 19.3832 6.7217
H 13.7631 19.3278 7.61622
H 13.4874 20.3124 6.49996
O 1.43368 28.5843 16.8683
H 2.06779 28.6378 16.1533
H 1.82106 29.1046 17.5721
O 11.7738 12.7284 18.6457
H 11.0161 12.1438 18.6611
H 12.0515 12.7373 17.7298
O 0.930861 19.1392 28.4801
H 1.17565 19.2156 27.5579
H 32.1241 19.5782 28.5404
O 24.2737 30.0791 31.7543
H 23.7401 29.3077 31.945
H 24.1616 30.6435 32.5192
O 10.331 3.5071 26.4892
H 10.2062 3.06685 27.3298
H 11.1588 3.97788 26.5853
O 28.5028 7.81389 19.2136
H 28.2329 7.4727 18.3613
H 29.4496 7.67532 19.2391
O 13.8827 21.5477 11.0212
H 14.6614 22.1041 11.0038
H 13.2256 22.0393 10.5286
O 29.1037 11.4965 17.6719
H 28.3587 10.996 18.0046
H 29.8615 10.9341 17.8323
O 18.811 27.1444 12.9555
H 19.1957 26.5524 13.6018
H 17.89 27.2092 13.2078
O 14.2724 27.2666 25.7853
H 14.8489 27.9726 26.0773
H 14.5565 27.0793 24.8906
O 25.7972 24.4244 25.9169
H 25.1209 24.8508 25.3907
H 25.4005 23.5982 26.194
O 29.6975 8.41216 3.96198
H 29.3122 7.53623 3.94034
H 29.1801 8.88583 4.613
O 17.2262 6.83261 13.4617
H 16.5891 6.18205 13.7568
H 17.0153 7.61995 13.9627
O 30.9567 12.4065 28.8648
H 30.8918 12.434 29.8194
H 31.5883 11.71 28.6874
O 17.7856 6.52894 20.0899
H 18.6397 6.24337 19.7657
H 17.3646 6.93457 19.332
O 14.6104 2.08619 23.6466
H 14.6202 2.50741 24.5061
H 14.628 2.81229 23.0232
O 1.24163 10.9082 12.0496
H 1.95712 11.3504 12.5065
H 0.651041 10.6235 12.7469
O 25.8909 12.4299 18.1663
H 24.9533 12.578 18.0432
H 26.3003 13.2553 17.9069
O 15.9819 12.7188 8.98393
H 16.6055 12.4546 8.30753
H 15.5076 13.4555 8.5986
O 25.9139 26.337 12.247
H 26.4494 27.1208 12.3693
H 26.4807 25.731 11.7699
O 1.55706 5.92726 32.3684
H 0.880587 5.42001 31.9198
H 2.37451 5.47495 32.1588
O 11.9612 31.6719 2.76955
H 11.4014 31.3086 3.45572
H 12.7368 31.1111 2.77077
O 30.3555 19.1424 25.0087
H 30.247 19.2383 25.9548
H 29.9445 19.924 24.6395
O 29.4436 12.2445 20.8621
H 28.817 11.5598 20.6282
H 29.4108 12.8601 20.13
O 6.2418 32.2963 6.59447
H 5.67922 31.6753 6.13185
H 6.1289 1.07932 6.12164
O 5.94956 21.776 28.6729
H 6.10646 22.3557 27.9276
H 5.99795 20.8939 28.305
O 18.4827 10.0188 17.9748
H 19.0694 10.7696 17.8842
H 18.5384 9.7812 18.9003
O 12.3669 5.56569 26.5387
H 12.8451 5.76176 27.3443
H 12.9981 5.73115 25.8385
O 18.6949 29.2993 2.38353
H 18.1897 29.5169 1.6002
H 19.4795 28.8642 2.04991
O 27.7402 32.5585 32.1579
H 28.3258 1.07747 0.625125
H 26.8781 0.92222 32.252
O 8.22841 6.21144 1.08477
H 7.85662 7.05104 0.815108
H 9.17312 6.36353 1.10889
O 11.3094 26.9195 12.6505
H 11.0526 27.8177 12.4418
H 12.205 26.9556 12.6822
O 6.78466 20.4734 7.80833
H 7.68318 20.7984 7.86583
H 6.32522 21.1296 7.28434
O 10.8561 6.5384 1.21574
H 11.4187 6.0641 1.82779
H 11.0456 7.46183 1.38175
O 28.3984 23.58 4.48932
H 28.6189 24.4419 4.84258
H 27.537 23.383 4.85722
O 22.7978 28.5566 6.23347
H 23.4206 28.1422 5.63627
H 22.7137 29.4531 5.90859
O 32.5977 27.295 11.2593
H 32.5653 28.201 11.1445
H 0.691831 27.1216 12.1908
O 4.48747 6.99621 24.6795
H 3.82809 6.44586 24.257
H 4.01603 7.43469 25.3878
O 11.5234 16.7981 16.6176
H 12.1972 16.3714 17.1467
H 11.1494 17.4632 17.1955
O 27.4826 14.1367 28.8895
H 27.4632 14.7 28.1159
H 28.0082 14.6211 29.5261
O 29.3977 15.047 31.1204
H 30.1934 14.5371 31.2738
H 29.0735 15.2557 31.9965
O 19.0489 30.6794 5.24428
H 19.7225 31.0246 4.65842
H 19.1566 29.7293 5.20038
O 8.23886 0.670256 26.6488
H 7.82324 31.8901 26.3873
H 8.12891 0.685617 27.5316
O 28.8899 15.697 25.2078
H 29.5016 15.6195 25.9399
H 28.0254 15.5926 25.6052
O 8.56983 3.95358 30.9432
H 9.30915 3.34574 30.9337
H 8.77477 4.56978 31.6464
O 6.89875 14.1104 32.5711
H 6.46961 14.9521 32.4179
H 7.61685 14.3128 1.12931
O 27.286 31.4762 23.0004
H 27.1892 31.8862 22.2178
H 27.2943 30.5433 22.7863
O 19.3484 31.5946 13.4076
H 18.5021 32.0015 13.2225
H 19.8664 31.7469 12.6173
O 28.1896 26.5052 8.30243
H 27.3628 26.0294 8.38314
H 27.9377 27.4284 8.31792
O 18.3346 18.1267 29.7664
H 17.6011 18.7285 29.8942
H 18.6578 17.9515 30.6501
O 1.98279 3.22916 21.0379
H 2.18099 3.90652 20.3913
H 2.71046 2.61119 20.9689
O 5.06455 17.0031 23.6433
H 5.31353 17.4335 24.4612
H 5.59824 16.2089 23.6179
O 9.74143 26.4994 5.51328
H 10.1519 26.7862 6.32902
H 10.0623 27.1145 4.85389
O 30.9522 6.58289 18.9261
H 31.0328 6.63113 17.9735
H 31.7091 7.06719 19.2558
O 3.77916 29.3965 11.1441
H 4.05128 30.2894 11.3561
H 2.8248 29.4435 11.0882
O 25.1338 26.5946 31.3265
H 24.4887 26.7035 30.6277
H 25.5199 27.4636 31.4342
O 31.7282 28.8 29.4834
H 31.1062 28.3501 30.0553
H 32.5735 28.6978 29.9208
O 17.5903 4.73429 3.85726
H 17.8039 4.27061 3.0476
H 16.9395 4.17936 4.28701
O 4.25015 32.1048 4.08739
H 4.5976 31.2912 4.45273
H 3.83975 31.842 3.26351
O 28.8644 22.0914 32.533
H 29.3789 22.839 32.229
H 27.9603 22.3174 32.3147
O 19.0721 26.5139 30.7046
H 19.8024 26.5133 31.3232
H 18.393 25.9939 31.1343
O 29.6476 6.19699 7.81354
H 29.5248 5.70735 8.62685
H 29.2657 7.05655 7.9909
O 1.58564 2.93287 9.56787
H 1.93282 2.86019 10.4569
H 1.67657 2.05306 9.20203
O 2.47136 4.9406 2.60151
H 1.80946 4.60674 3.20671
H 1.96934 5.30111 1.87113
O 4.90554 25.996 15.1378
H 5.01376 26.8319 14.6841
H 4.11443 25.6163 14.7556
O 7.89223 11.5894 5.81988
H 7.0472 12.0291 5.72556
H 8.05804 11.2013 4.96077
O 22.0239 8.6771 6.17383
H 22.7052 9.09404 6.7013
H 22.4309 7.8747 5.84714
O 23.062 10.6967 10.0161
H 23.6446 10.3806 9.32511
H 22.3884 11.1942 9.553
O 21.7611 28.108 16.4556
H 21.3979 28.9917 16.3982
H 22.6701 28.2032 16.1714
O 17.9896 25.5832 15.1716
H 17.1786 25.4356 15.658
H 18.5338 26.1023 15.7635
O 27.6439 18.6207 7.36316
H 27.6568 19.24 6.63359
H 27.7202 17.7609 6.94945
O 29.2024 30.329 10.8578
H 29.7467 30.7795 11.4051
H 29.6323 30.3119 10.0024
O 17.9711 12.0753 1.67045
H 18.8796 12.2431 1.42011
H 17.7517 11.2499 1.23827
O 30.9054 19.0531 21.2887
H 30.9589 18.2002 20.8575
H 31.5724 19.0176 21.9743
O 2.37148 11.8697 5.25676
H 1.83208 11.6112 4.50952
H 1.83392 12.5023 5.73333
O 32.5372 20.7245 17.2359
H 1.28222 20.2261 17.0143
H 32.4506 21.3633 16.5283
O 8.62897 18.0435 15.8342
H 7.87657 18.0638 15.2423
H 8.89918 17.1253 15.8476
O 5.25118 10.1284 20.5563
H 6.17553 10.3594 20.4615
H 5.01763 9.72693 19.7193
O 21.6995 31.7435 6.5769
H 21.014 31.471 5.96635
H 22.2576 32.329 6.06506
O 26.1378 13.7709 23.8939
H 25.2521 13.8463 23.5388
H 26.2055 12.8595 24.1785
O 25.6761 12.8431 20.9139
H 25.4655 13.7527 20.7032
H 25.8576 12.4361 20.0664
O 16.1874 21.4558 3.4684
H 15.7672 21.9549 2.768
H 16.5631 22.121 4.04504
O 17.2752 2.89915 8.59558
H 18.1092 2.62879 8.21151
H 16.8738 3.45706 7.92938
O 14.7427 24.1512 30.8332
H 14.6772 23.2868 30.4274
H 14.9362 24.7435 30.1067
O 15.3866 3.64155 30.7331
H 14.4922 3.90346 30.9513
H 15.9194 4.40867 30.9429
O 28.9313 20.4174 22.7782
H 29.2581 21.1123 22.2068
H 29.359 19.6229 22.4586
O 20.5871 16.346 11.2142
H 20.1409 15.7416 11.8073
H 21.5031 16.0683 11.2324
O 5.77986 12.4742 2.60367
H 5.99582 13.0254 1.85116
H 6.31422 11.689 2.48696
O 14.7974 15.7041 9.95595
H 14.1077 15.997 10.5514
H 14.3966 15.7411 9.08756
O 18.6141 20.2613 9.01553
H 18.3856 20.2587 8.08604
H 19.3635 20.8536 9.07679
O 15.2649 30.8038 26.6663
H 16.0391 30.3307 26.3611
H 15.5376 31.2026 27.4925
O 8.08147 25.4932 28.5815
H 7.55317 25.1667 29.3098
H 8.17972 26.4291 28.7569
O 11.4782 28.3551 20.4324
H 12.1491 29.0353 20.3747
H 10.6496 28.8348 20.4359
O 27.8823 1.36301 20.9037
H 27.5911 1.766 20.0858
H 28.6907 0.996408 20.7151
O 19.1625 29.4228 9.68315
H 18.7462 29.6624 10.5111
H 18.4992 28.9109 9.22035
O 27.7925 29.8497 16.6247
H 27.7648 30.3768 17.4232
H 28.1456 30.4404 15.9595
O 9.51947 24.3281 21.5295
H 8.99132 23.7779 20.9512
H 10.3275 23.8314 21.6607
O 14.0898 4.54385 11.5863
H 15.0219 4.38239 11.7327
H 14.0552 5.42142 11.2057
O 18.8423 8.53973 9.83436
H 19.2093 8.64493 8.95662
H 19.1765 9.29013 10.3257
O 10.7366 12.3125 27.2234
H 9.82188 12.5761 27.1233
H 10.8983 11.7224 26.4873
O 19.9323 20.8428 23.8575
H 19.0149 21.1128 23.8173
H 20.1477 20.5902 22.96
O 6.34715 5.63366 18.281
H 7.12174 6.06305 18.6442
H 6.01211 6.25192 17.6315
O 17.2158 20.5199 11.4921
H 17.0628 21.3784 11.8871
H 17.7509 20.7031 10.7199
O 20.8256 16.1776 20.7522
H 20.4125 17.0344 20.6458
H 20.476 15.8437 21.5784
O 32.3311 7.23999 3.37734
H 32.0817 6.34805 3.61896
H 31.635 7.78971 3.73754
O 24.3943 14.0264 27.7115
H 24.0333 13.3327 27.1597
H 24.9179 14.5604 27.114
O 8.37768 15.1263 16.403
H 8.5408 15.0242 17.3404
H 9.24041 15.0362 15.9981
O 3.09853 1.98929 0.726803
H 2.21357 2.21618 1.01254
H 3.05337 1.07747 0.70118
O 24.7378 2.87865 14.1784
H 23.9165 3.0013 13.702
H 25.3966 3.3123 13.636
O 25.6491 7.7869 6.62295
H 25.3763 8.36712 5.91206
H 25.2443 6.94481 6.41341
O 1.36057 24.0141 10.423
H 1.89595 23.2355 10.5759
H 0.690155 23.9821 11.1055
O 15.5989 7.98727 21.499
H 14.7813 7.7506 21.0612
H 16.2572 7.61721 21.0109
O 23.5117 10.8562 20.5906
H 24.1286 11.3794 21.1022
H 23.4927 10.0074 21.0327
O 6.89097 24.3171 30.6828
H 7.70573 24.6634 31.0468
H 6.50878 23.8045 31.3951
O 28.6191 9.01647 15.622
H 28.3155 8.3103 16.1922
H 28.0414 9.75263 15.8233
O 10.6129 14.8371 14.8663
H 11.0133 15.5378 15.3809
H 11.1695 14.0749 15.0241
O 15.8773 23.3657 11.1312
H 16.1102 23.1115 12.0242
H 15.2233 24.0558 11.2411
O 13.6587 4.56018 7.70998
H 12.9718 4.38693 7.06633
H 13.5148 3.9082 8.39582
O 14.4941 15.8613 13.6977
H 15.3885 15.6372 13.4407
H 14.3843 15.4595 14.5596
O 3.0968 22.3504 31.1784
H 3.499 22.6893 31.9781
H 2.15764 22.4841 31.3065
O 31.5017 15.1767 8.63723
H 31.9329 14.3412 8.81654
H 32.0842 15.6195 8.02057
O 30.4024 22.9277 2.80465
H 30.1163 22.5984 1.95272
H 29.5903 23.1298 3.26907
O 9.81722 20.4331 21.168
H 9.60894 19.5018 21.2427
H 9.65309 20.7868 22.0423
O 27.9147 1.5304 26.4808
H 27.6704 2.40917 26.1905
H 27.3491 1.36079 27.2342
O 22.5035 24.6862 30.6093
H 22.9724 25.352 30.1062
H 21.8289 25.1736 31.0821
O 10.9058 32.3547 26.6076
H 11.2334 0.613359 27.4558
H 9.965 32.2397 26.7407
O 18.9544 6.38636 25.9505
H 18.0836 6.74714 25.7839
H 18.7889 5.55496 26.395
O 24.3239 9.38304 2.0992
H 25.256 9.57927 2.005
H 23.9896 9.36952 1.2024
O 27.5809 10.3314 20.005
H 27.9364 9.4704 19.7849
H 26.7334 10.3617 19.5612
O 15.627 0.714461 10.2018
H 15.2004 31.8993 10.2219
H 16.1799 0.725695 10.983
O 19.9595 0.865427 10.746
H 19.5409 1.70766 10.9236
H 20.8974 1.05636 10.758
O 9.047 29.7482 20.217
H 8.30113 29.1585 20.1075
H 9.24909 30.0468 19.3304
O 26.1653 15.2583 26.215
H 26.1013 14.7507 25.406
H 25.9325 16.1503 25.9577
O 11.1425 6.43021 22.793
H 10.8597 5.57575 23.1176
H 10.4603 7.0353 23.084
O 17.2895 21.2674 18.0333
H 17.9213 20.9321 18.6693
H 16.4368 21.0089 18.383
O 25.1524 19.8739 29.7446
H 25.2262 18.936 29.5683
H 24.6312 20.2142 29.0177
O 26.3178 10.8643 15.7819
H 26.5222 11.7812 15.5985
H 26.1279 10.8437 16.7198
O 3.08204 2.71056 11.8582
H 3.30916 1.81099 12.0934
H 2.43475 2.97355 12.5125
O 28.312 5.7288 11.9876
H 27.8003 4.97973 12.293
H 27.6692 6.42918 11.8763
O 23.015 24.2754 16.6623
H 23.6385 24.497 17.354
H 22.2028 24.7095 16.9232
O 14.1759 15.7928 22.5526
H 13.8221 15.2443 23.2527
H 13.5436 16.5058 22.4638
O 1.94469 10.0177 14.6272
H 2.67774 9.7143 15.1627
H 1.36552 10.4647 15.2444
O 20.408 4.74134 21.6966
H 21.1501 5.16787 22.1254
H 20.5241 4.93507 20.7666
O 12.0819 26.1326 28.1019
H 11.8704 27.0645 28.0463
H 11.8545 25.888 28.9989
O 6.67292 12.9944 21.2569
H 7.0091 12.2502 21.7564
H 7.36116 13.1865 20.6201
O 21.0731 18.9623 1.3854
H 20.3717 18.3194 1.28076
H 20.619 19.7863 1.56149
O 14.8625 19.6785 8.88739
H 15.6694 19.2464 9.16744
H 14.5285 20.0997 9.67935
O 5.4182 11.3062 10.1533
H 4.82777 10.663 9.7617
H 5.3037 11.1945 11.0969
O 31.9758 14.2892 16.4196
H 31.6302 14.572 17.2662
H 32.3335 13.417 16.5855
O 13.1233 30.8667 30.1505
H 13.5722 30.0993 29.7949
H 13.676 31.1523 30.878
O 15.5067 29.6742 22.0384
H 14.8689 29.0416 22.3691
H 15.5709 30.3337 22.729
O 12.1838 30.4331 10.0011
H 12.5805 30.8762 10.7511
H 11.9025 31.143 9.42424
O 2.34294 24.7806 14.4925
H 2.89895 24.4421 13.7908
H 1.83599 25.4802 14.0807
O 1.29778 30.0004 8.19147
H 1.99845 29.3498 8.23516
H 1.7099 30.7711 7.80112
O 16.5264 6.88515 24.733
H 17.0781 6.51681 24.0429
H 15.6588 6.51552 24.5695
O 5.12234 27.4813 27.2407
H 4.99276 27.9551 28.0622
H 4.36288 27.7144 26.7069
O 30.458 1.89351 6.83795
H 30.0411 1.03447 6.77255
H 30.7934 1.93002 7.73366
O 22.9565 22.9508 28.3636
H 22.6809 23.6431 28.9644
H 22.593 23.2091 27.5166
O 30.177 21.6369 6.41371
H 30.3892 22.4247 5.91327
H 29.269 21.4424 6.18181
O 29.7942 23.4753 21.7159
H 29.7183 22.7674 21.0762
H 29.85 24.2714 21.1875
O 6.82012 14.5036 23.5018
H 6.53651 14.0223 22.7245
H 7.75697 14.6463 23.3671
O 9.57291 30.858 17.6932
H 9.42702 29.9978 17.2999
H 8.72071 31.2911 17.6451
O 5.8146 27.8159 23.3718
H 5.36198 27.6858 22.5385
H 5.54892 28.6907 23.6552
O 25.4158 24.9 6.08562
H 25.7655 25.6037 5.53852
H 24.4666 24.963 5.97996
O 10.7555 21.5459 16.67
H 11.3741 21.6401 17.3943
H 10.0836 20.9516 17.004
O 18.4841 6.3711 29.0462
H 17.6141 6.70272 28.8244
H 19.052 7.1405 29.0047
O 21.4476 27.9393 11.9988
H 21.3186 27.5485 11.1346
H 20.6324 27.7602 12.4674
O 25.3449 20.784 4.20713
H 24.6744 20.8375 4.88812
H 25.1442 19.9754 3.73577
O 13.1004 16.1276 7.22233
H 12.8796 16.6215 6.43279
H 13.3324 15.2555 6.90295
O 8.50962 22.2606 19.5473
H 9.13707 21.6352 19.9098
H 9.00097 22.7303 18.8734
O 10.3213 22.1877 27.2239
H 11.2549 21.9984 27.1305
H 10.2528 22.6518 28.0582
O 22.8465 23.9645 5.90602
H 22.9317 24.0361 4.95563
H 21.9453 23.6734 6.04504
O 32.0628 25.2301 2.66172
H 0.911648 24.9192 2.49644
H 31.5498 24.432 2.78812
O 23.9979 25.8803 24.641
H 24.8432 26.2106 24.3369
H 23.7923 26.4162 25.407
O 13.7189 30.07 20.0396
H 14.3446 29.9369 20.7516
H 13.6912 31.0191 19.9188
O 20.8508 12.1397 9.25546
H 21.2532 12.8105 8.70392
H 20.1877 11.7346 8.69619
O 14.5317 10.8281 20.0194
H 13.8913 11.4576 20.3505
H 15.0528 11.3252 19.3887
O 16.3821 9.31689 2.9866
H 15.4492 9.23975 2.78694
H 16.7976 9.4678 2.13759
O 26.6173 10.9123 9.45647
H 27.2392 10.584 10.1059
H 26.0934 10.2152 9.23273
O 2.59859 31.8824 6.13307
H 2.17174 31.0807 5.83124
H 3.21618 32.1027 5.43575
O 1.278 29.5164 5.34455
H 0.740633 28.9857 5.93298
H 0.700141 29.7191 4.60891
O 24.5845 31.7213 23.5976
H 24.3157 31.8396 22.6866
H 25.5404 31.6932 23.5643
O 13.6522 22.5198 5.81058
H 13.677 22.6633 4.86455
H 13.3974 23.3673 6.17528
O 31.4919 10.9701 21.5891
H 30.6908 11.4728 21.4415
H 31.7737 11.2206 22.469
O 27.8888 17.0521 3.52081
H 28.5013 17.2977 2.82738
H 27.0467 16.9593 3.07538
O 9.38507 13.0373 10.0923
H 9.14924 12.3189 10.6793
H 10.1569 13.4337 10.4962
O 32.4764 1.10263 27.3127
H 0.817739 1.06599 26.4362
H 0.605595 1.99548 27.6124
O 31.8096 22.0202 22.8786
H 32.2594 22.3841 23.6412
H 31.2498 22.7317 22.568
O 1.07439 8.24716 19.2851
H 1.81392 8.05467 18.7088
H 1.38041 8.00173 20.1583
O 3.5251 32.2092 30.2872
H 4.01918 31.491 30.6825
H 2.60963 32.0028 30.4756
O 1.48912 2.23994 17.8394
H 0.857415 1.67838 18.2887
H 1.28232 2.13891 16.9103
O 8.69701 9.47464 9.89609
H 8.99343 8.83253 9.25111
H 7.93546 9.88878 9.48981
O 7.69692 1.50358 2.12499
H 8.30749 1.94544 2.71501
H 7.15745 2.20818 1.76625
O 23.2667 3.5144 21.5976
H 23.6914 3.46672 22.4541
H 23.9138 3.93574 21.032
O 8.54537 26.8541 22.8351
H 7.61765 27.0886 22.8146
H 8.62339 26.1292 22.2149
O 29.9122 21.629 19.8552
H 30.0592 22.3586 19.2533
H 29.1059 21.2187 19.5426
O 17.1981 15.7114 28.8353
H 16.4051 15.5521 29.3471
H 17.3715 16.6464 28.9464
O 23.6364 11.642 29.8719
H 23.1575 12.2142 30.4714
H 22.9554 11.2139 29.3532
O 26.0612 32.516 13.6233
H 26.735 0.857811 13.0618
H 25.464 1.19886 13.8101
O 16.8337 4.24805 11.0364
H 16.8025 5.11511 10.6326
H 16.981 3.64772 10.3057
O 21.5174 18.8842 30.7356
H 21.5681 17.9465 30.5485
H 21.3246 18.9324 31.6719
O 21.9751 30.6028 12.2775
H 21.9225 31.0425 11.429
H 21.7633 29.6889 12.0878
O 10.2597 23.6294 29.7646
H 9.75658 24.371 29.5809
H 9.58434 23.0124 30.0464
O 28.7103 9.13057 24.7393
H 28.503 9.11094 25.6736
H 28.3047 9.93678 24.4204
O 24.3104 3.40318 9.95932
H 23.6906 4.04013 10.3149
H 24.358 3.60994 9.02597
O 15.2776 30.0209 10.1503
H 15.4473 29.7227 9.257
H 16.1255 29.9576 10.5898
O 15.6961 32.136 29.132
H 15.4201 32.0648 30.0455
H 16.2987 0.83839 29.1206
O 21.9806 30.3291 9.23341
H 21.0374 30.1834 9.30723
H 22.1061 30.6382 8.3363
O 24.1069 19.1452 32.0788
H 24.5921 19.3548 31.2808
H 23.2373 18.89 31.7709
O 26.6136 19.1917 21.0842
H 25.7287 18.8864 20.8848
H 26.8468 18.7388 21.8945
O 30.6487 1.7944 10.1353
H 31.4601 2.04423 10.5773
H 30.2566 2.62491 9.86576
O 21.1301 16.7487 26.8365
H 21.8662 17.1922 27.2583
H 20.9408 17.2799 26.0634
O 5.13448 5.53825 1.34025
H 4.5049 5.80972 2.00801
H 5.70045 6.30058 1.21969
O 24.074 21.693 18.5035
H 23.7219 20.9711 19.024
H 24.8896 21.3499 18.1381
O 30.693 21.464 10.8225
H 29.973 21.0634 11.3096
H 30.7615 22.3492 11.1802
O 18.032 3.72351 1.33281
H 18.0152 2.78357 1.15299
H 17.861 4.13348 32.5265
O 2.53689 19.078 18.9041
H 3.20405 19.0034 18.2219
H 1.95915 18.329 18.7578
O 27.4138 10.9338 23.1014
H 26.4605 10.8896 23.1757
H 27.6112 10.4887 22.2773
O 17.2179 12.0846 11.4733
H 18.023 11.567 11.4837
H 16.6193 11.6089 12.049
O 9.19355 18.5464 2.68101
H 9.91737 18.9068 3.19314
H 9.52453 17.7102 2.35304
O 15.5777 20.5734 27.4749
H 15.5435 20.2711 28.3826
H 16.5081 20.5557 27.2509
O 32.3117 12.6243 9.92696
H 31.6586 11.9717 9.67425
H 1.00516 12.1109 10.2623
O 9.69735 3.69557 12.3162
H 9.43101 3.04275 11.6689
H 9.75118 4.51452 11.8237
O 2.97884 21.4432 10.7867
H 3.04871 21.5359 11.7368
H 3.83491 21.113 10.5141
O 22.0915 16.214 30.5031
H 21.714 16.0387 29.6412
H 21.5125 15.7826 31.0528
O 11.1663 28.0665 3.73927
H 12.0933 28.0245 3.97357
H 11.1506 27.916 2.79413
O 20.7592 4.58863 30.2951
H 21.5642 5.0294 30.0234
H 20.0607 5.0693 29.8509
O 3.60423 25.9282 17.7072
H 4.46721 26.0462 18.1041
H 3.76351 25.9853 16.7651
O 6.08923 20.2989 17.4346
H 7.04125 20.3348 17.527
H 5.86421 19.3873 17.6209
O 2.73851 28.6981 0.950753
H 3.4471 28.3227 32.4695
H 1.96558 28.1881 0.708586
O 24.3335 22.3583 14.6009
H 25.163 22.515 14.8907
H 24.2981 22.6804 13.7002
O 30.5488 28.8821 13.2503
H 30.1463 28.5297 12.4566
H 31.3773 28.4095 13.3295
O 8.65321 24.1061 7.46574
H 8.59831 23.9527 8.40895
H 9.08546 24.9563 7.38552
O 24.8552 6.57153 2.02696
H 25.2736 6.05832 2.71809
H 24.6915 7.42525 2.42764
O 8.66802 31.271 10.6817
H 9.10353 30.5226 11.0897
H 7.90245 31.4329 11.2328
O 15.5707 22.1251 7.69246
H 15.4531 21.3072 8.17559
H 14.9934 22.0408 6.93366
O 18.7934 18.9052 17.4218
H 19.0805 19.4404 18.1617
H 17.8679 18.733 17.5951
O 25.776 15.2391 9.71963
H 25.4606 15.2952 8.81774
H 26.7292 15.2815 9.64355
O 12.3559 13.1088 15.8774
H 13.2265 13.4674 16.0495
H 12.5059 12.175 15.7297
O 6.84883 30.0862 26.8086
H 7.05141 30.4607 27.6658
H 5.89572 30.1461 26.7394
O 20.3174 1.74107 27.5868
H 20.3181 0.830564 27.2916
H 20.2686 1.68425 28.5411
O 7.27341 31.2443 29.2407
H 6.75373 31.7485 29.867
H 8.16494 31.2777 29.5867
O 23.2163 30.3066 25.485
H 23.5694 30.6827 24.6787
H 22.3066 30.0969 25.2736
O 1.49513 30.5309 27.9756
H 0.64512 30.0915 27.9879
H 1.28353 31.4641 27.9987
O 13.623 14.1796 29.381
H 13.7329 14.9032 29.9979
H 12.6927 14.1949 29.1565
O 27.937 26.3986 26.2981
H 27.2832 25.7845 25.9642
H 28.224 26.8864 25.5257
O 2.57955 11.3921 20.5043
H 1.63082 11.2666 20.5211
H 2.92301 10.7024 21.0721
O 28.2084 9.0539 6.17004
H 28.7797 9.10366 6.93645
H 27.481 8.59869 6.44594
O 6.26216 14.6739 28.7445
H 6.73628 15.4287 29.0936
H 6.27184 14.8024 27.796
O 27.9047 32.2413 3.42856
H 28.8104 32.5485 3.38926
H 27.9516 31.4171 3.91309
O 28.5366 1.57954 12.1455
H 29.3185 1.63296 11.5964
H 28.5374 2.3963 12.6448
O 8.45803 1.03669 14.7072
H 7.9814 0.739637 15.4822
H 8.6768 1.94949 14.8955
O 26.3884 2.5912 6.75945
H 25.7598 2.94008 7.39181
H 27.2379 2.91014 7.06413
O 28.7023 11.9038 7.83749
H 28.3911 11.5782 6.99296
H 27.9691 11.759 8.43552
O 22.2226 26.2264 22.604
H 21.6649 26.9358 22.6068
H 22.8835 26.4722 23.2515
O 10.2046 2.54822 3.46284
H 10.9258 1.93515 3.32059
H 10.0664 2.54042 4.40992
O 28.538 9.06901 27.4366
H 28.3085 8.14622 27.327
H 29.1328 9.08107 28.1864
O 25.474 17.1139 29.028
H 26.4278 17.0723 28.9591
H 25.2745 16.4495 29.6441
O 5.03535 17.695 15.745
H 5.0547 16.7483 15.6051
H 5.22094 17.8036 16.6777
O 15.2311 7.55449 5.3006
H 14.7014 6.95211 4.77856
H 15.0975 7.26821 6.14699
O 0.695382 4.5573 4.5337
H 0.837604 4.49328 5.47807
H 31.9566 4.15902 4.39905
O 1.65894 19.4882 25.8418
H 2.59972 19.5203 25.6684
H 1.38436 20.4051 25.8489
O 22.439 7.31698 9.94885
H 21.9025 7.1359 9.17719
H 22.5196 6.47086 10.389
O 25.0495 31.8938 9.3512
H 25.9348 32.1333 9.62512
H 25.0855 31.8957 8.3947
O 23.2315 20.1567 8.55728
H 23.1654 20.9568 9.07845
H 23.1386 20.4519 7.65152
O 28.8128 17.1534 13.7923
H 28.4888 16.5227 14.4347
H 29.4102 17.7147 14.2867
O 15.0879 24.8007 7.63724
H 14.143 24.7652 7.4892
H 15.3344 23.8964 7.83114
O 8.06593 12.4669 26.9916
H 7.91033 13.3825 26.7602
H 7.64628 11.9679 26.2908
O 16.796 17.9828 12.0543
H 16.8303 18.9329 11.9454
H 16.4919 17.8549 12.9529
O 32.5931 16.6089 12.495
H 1.40578 16.1772 12.5067
H 0.590956 17.1983 11.7418
O 30.0958 17.0273 1.26137
H 30.4053 17.0109 32.4228
H 29.7227 17.9066 1.32251
O 26.5958 25.1757 16.446
H 25.9425 25.1835 17.1454
H 26.422 25.9733 15.9463
O 25.2107 1.76734 32.0901
H 25.5955 2.64122 32.0239
H 24.4518 1.79454 31.5075
O 14.6371 30.9788 13.4734
H 14.5029 31.5858 14.2013
H 14.6728 30.1152 13.8846
O 27.2123 15.4931 21.0949
H 27.0902 16.2562 21.6596
H 27.7012 15.8269 20.3428
O 6.22968 7.57236 28.9464
H 7.00566 7.30961 29.4413
H 6.29665 8.52529 28.8838
O 1.76601 11.6577 29.0511
H 2.51692 11.2447 28.6248
H 2.14883 12.3367 29.6065
O 22.4165 6.4679 28.7691
H 22.2488 6.26172 27.8496
H 21.8459 7.21338 28.9558
O 1.87275 26.0089 5.60849
H 1.91955 26.7751 5.03668
H 1.26368 25.4169 5.16715
O 13.6636 6.23991 19.7559
H 12.7231 6.0659 19.7166
H 14.0402 5.67986 19.0772
O 17.3122 23.1144 20.1332
H 18.2641 23.1441 20.2288
H 17.1704 22.8189 19.2339
O 25.1191 24.4669 0.841229
H 24.3633 24.1842 1.35601
H 24.7955 25.2047 32.3665
O 4.20864 30.5105 26.0288
H 3.5151 29.8588 26.1317
H 4.49908 30.4107 25.1222
O 27.8008 9.66591 12.9026
H 28.1856 9.18942 13.6382
H 28.4559 9.68218 12.2929
O 8.55053 6.82798 19.0806
H 8.32782 7.6571 19.5039
H 9.41762 6.60953 19.4221
O 23.4181 21.3218 6.12199
H 22.606 21.103 5.66508
H 23.4665 22.2769 6.08118
O 20.8991 1.39442 14.7847
H 20.4154 1.67657 15.561
H 20.3762 0.678828 14.4231
O 20.4119 22.8563 6.23158
H 20.7858 22.211 5.63156
H 19.4764 22.8585 6.02914
O 17.3974 28.8955 26.0973
H 18.0447 29.5859 26.2404
H 17.7179 28.1634 26.5137
O 16.7396 22.2881 31.9892
H 17.028 22.9093 0.616448
H 16.8589 22.7539 31.1616
O 26.6977 10.6626 2.0204
H 26.186 11.1946 1.41116
H 26.7727 11.2033 2.80667
O 30.5281 0.619134 21.725
H 31.1187 32.3963 21.0196
H 30.9609 32.362 22.5248
O 12.8815 14.3882 24.9635
H 12.5594 13.5824 24.5597
H 12.0948 14.9126 25.1135
O 6.76472 3.08439 6.27989
H 6.57772 2.96281 7.21071
H 7.7178 3.02242 6.21607
O 5.76634 13.2943 5.26029
H 4.98425 13.0241 5.74125
H 5.69487 12.8485 4.41615
O 23.8257 28.454 14.3821
H 24.6153 28.1199 14.8076
H 23.8558 29.3993 14.5293
O 2.78157 30.3239 18.944
H 3.61518 29.9881 18.6146
H 2.78704 31.2518 18.7091
O 23.395 3.74849 2.78422
H 24.3218 3.5304 2.6862
H 23.1397 3.34321 3.61312
O 6.31004 15.5349 3.87365
H 6.79366 16.1711 4.40044
H 6.00606 14.8825 4.50456
O 18.585 14.5812 9.84726
H 19.1972 15.0097 10.4455
H 18.4798 13.6988 10.2029
O 26.3584 11.491 28.47
H 25.9516 10.6359 28.6103
H 26.3989 11.5841 27.5184
O 9.13584 2.09033 10.1107
H 9.21406 1.13685 10.1412
H 9.75393 2.36019 9.4315
O 10.5863 10.5897 25.1083
H 10.4515 11.0523 24.2813
H 10.5501 9.66274 24.8733
O 18.4077 31.8147 23.6966
H 18.5714 0.618678 23.2787
H 17.4854 31.8472 23.9505
O 26.8344 12.3736 12.7651
H 26.8087 11.4352 12.952
H 26.6677 12.7913 13.61
O 27.9704 20.312 5.15009
H 28.5551 20.2099 4.39923
H 27.0906 20.2306 4.78193
O 8.98346 25.7752 10.909
H 8.66247 26.5286 10.4136
H 8.90809 26.0409 11.8255
O 20.2128 19.826 28.019
H 20.1695 19.2085 28.7495
H 19.4163 19.6583 27.5154
O 25.048 9.30066 23.2688
H 25.7726 8.86181 22.8232
H 24.261 8.92868 22.8707
O 16.6719 15.7263 31.9056
H 16.557 14.7918 32.0782
H 15.8186 16.0177 31.5846
O 5.71476 2.66759 28.5809
H 5.14061 1.94884 28.3164
H 5.26487 3.45721 28.2803
O 10.7094 9.91035 20.9808
H 10.1482 9.13951 21.0647
H 10.5766 10.2072 20.0805
O 12.1651 24.8007 25.5381
H 11.4311 24.5733 24.9673
H 11.8328 25.4573 26.042
O 30.6233 19.8846 30.3266
H 31.2603 20.1605 30.9856
H 29.7734 20.1071 30.7065
O 11.8151 17.9279 22.464
H 11.2388 17.4612 21.8589
H 11.9741 18.7718 22.0413
O 24.6819 15.8524 6.86294
H 24.4922 16.6589 7.3422
H 25.5466 15.9988 6.47954
O 7.95218 15.2093 26.2474
H 8.08264 15.9041 26.8927
H 8.3262 15.5593 25.4388
O 8.53709 15.3476 19.1367
H 8.52894 14.4189 19.3681
H 7.63963 15.6415 19.293
O 18.5927 3.85875 26.8846
H 17.7137 3.50088 27.0092
H 19.1707 3.09738 26.9316
O 14.2552 30.0841 2.30192
H 13.9295 29.1979 2.46001
H 14.7881 30.2846 3.07128
O 17.7357 29.1701 31.9491
H 17.7852 29.5355 31.0657
H 17.926 28.239 31.8344
O 0.626 32.0436 15.1189
H 32.3984 0.89887 15.3169
H 32.2643 31.5466 15.7941
O 20.0591 25.8014 3.98619
H 20.4853 24.9945 3.97617
H 19.2008 25.6656 3.58478
O 11.2681 7.92205 5.47971
H 11.8516 7.18154 5.3142
H 11.521 8.57692 4.82902
O 15.5269 10.2267 5.85628
H 15.7056 9.32102 5.60305
H 14.5744 10.269 5.94103
O 29.2548 14.0261 18.8873
H 29.3285 13.3113 18.2553
H 30.1031 14.4679 18.8497
O 3.08366 25.1521 8.02414
H 3.05561 24.2522 7.69953
H 2.76704 25.6815 7.29187
O 10.1489 5.72088 29.5514
H 9.3931 5.20117 29.8248
H 10.8451 5.20195 29.8419
O 0.604644 18.2076 10.2862
H 31.7116 18.0109 10.3495
H 0.647633 19.0028 9.75524
O 1.19329 20.5058 8.64109
H 1.72707 20.72 9.40616
H 1.79122 20.5943 7.89891
O 28.8422 4.26549 6.24839
H 29.5036 3.62157 6.50162
H 29.0103 5.01783 6.81565
O 4.2953 10.8738 7.01064
H 3.9796 11.2132 7.84811
H 3.55664 10.9862 6.41241
O 16.0985 13.0529 32.0082
H 16.5475 12.6657 0.661605
H 16.5936 12.9986 31.227
O 18.3002 6.73572 7.05254
H 19.0306 6.22442 7.40094
H 17.5758 6.11257 6.99749
O 17.1208 0.892268 1.37119
H 18.0579 0.774588 1.52892
H 16.7379 0.966412 2.24536
O 3.56429 11.8905 1.25951
H 4.27805 12.1819 1.82677
H 3.56541 10.9369 1.34307
O 1.31874 17.7695 31.5085
H 1.09955 18.6969 31.599
H 0.952264 17.3585 32.2916
O 12.9467 10.9541 22.9087
H 13.0413 11.6846 22.2976
H 12.3092 10.3739 22.4924
O 1.03536 19.3347 22.7826
H 0.972879 20.2163 23.1503
H 1.87954 19.0054 23.091
O 4.37158 9.01109 13.6316
H 5.28352 8.752 13.5004
H 4.24943 8.98797 14.5805
O 21.4306 24.8073 26.0704
H 21.0829 24.8935 26.9579
H 22.0718 25.514 25.994
O 24.0403 31.9586 27.422
H 23.3766 32.1377 28.0881
H 23.6058 31.3737 26.8013
O 31.5156 26.4567 16.2382
H 32.0511 27.1447 16.6332
H 30.6545 26.5605 16.6431
O 2.41177 26.3749 29.7719
H 2.2911 27.2793 30.0624
H 1.67571 25.8993 30.1568
O 14.3134 16.8475 31.0508
H 14.378 17.7983 31.1402
H 13.6379 16.5927 31.6792
O 23.2808 21.3182 1.82439
H 23.7671 21.6275 2.58859
H 23.7726 20.5558 1.51934
O 30.1592 15.472 3.66936
H 29.2298 15.6667 3.78911
H 30.2033 15.0212 2.82613
O 29.1598 19.6359 1.64221
H 29.4427 19.9788 2.48986
H 29.0332 20.4137 1.09887
O 28.5804 25.3683 32.0784
H 28.1666 25.3447 0.899808
H 29.3321 24.7812 32.1567
O 27.3091 27.4932 28.805
H 27.707 27.1644 27.9989
H 26.4119 27.7156 28.5563
O 10.2749 24.2862 3.92886
H 10.9806 24.4647 3.30756
H 10.1915 25.0939 4.43562
O 21.1735 18.4616 8.57898
H 21.8155 19.1686 8.64674
H 21.4255 17.9837 7.78889
O 15.9789 18.2546 17.6428
H 15.1125 18.4077 17.2665
H 15.8055 17.8015 18.4679
O 20.047 28.057 22.9365
H 20.038 28.7501 22.2765
H 19.1337 27.9752 23.2109
O 31.8275 13.8519 26.7727
H 31.3378 13.4035 27.4621
H 0.597974 13.3514 26.6903
O 5.53762 15.0707 15.7392
H 5.49233 14.5937 14.911
H 6.46843 15.2628 15.8551
O 24.304 31.8911 1.70669
H 23.3706 32.0352 1.86253
H 24.5153 32.4635 0.969241
O 3.67356 18.9746 21.9074
H 3.85141 18.1793 21.4053
H 4.27324 18.9272 22.6521
O 14.513 13.3319 6.58771
H 13.7613 12.7407 6.54915
H 14.8242 13.3834 5.68405
O 12.1679 1.38337 28.691
H 12.6921 0.7013 29.1108
H 12.8065 2.04046 28.4141
O 30.4594 8.90107 1.25084
H 30.4045 9.85359 1.32786
H 30.1562 8.57413 2.09793
O 13.419 9.66425 31.3502
H 12.4969 9.90477 31.26
H 13.4855 8.8061 30.9314
O 27.2436 12.0674 4.40509
H 26.9007 12.8905 4.05708
H 28.1557 12.26 4.62212
O 2.05075 18.8081 13.2346
H 1.468 18.05 13.1904
H 2.26968 18.9085 12.3355
O 6.97716 24.0331 15.8071
H 6.30742 24.7149 15.8513
H 6.53662 23.2901 15.3946
O 22.0953 2.03776 8.03838
H 22.5289 1.97566 8.88956
H 22.0217 1.13097 7.74023
O 23.5362 7.48884 17.3827
H 23.7715 7.28506 18.2879
H 24.2081 7.05515 16.8567
O 10.1805 11.9096 7.50705
H 9.39621 11.9291 6.9582
H 9.92239 12.3623 8.31003
O 15.7663 7.20725 28.6338
H 15.6584 7.85102 27.9337
H 15.5183 6.37376 28.2334
O 10.8373 23.9251 13.3974
H 11.403 24.1952 14.1208
H 9.99988 24.3534 13.5748
O 12.3717 31.8792 12.2476
H 12.3356 0.777947 12.4244
H 13.1305 31.5708 12.7427
O 26.3662 3.55436 11.7834
H 25.7791 3.64737 11.033
H 26.7673 2.69282 11.669
O 6.42238 10.0297 16.0108
H 5.84112 10.6863 15.6262
H 7.04162 10.5359 16.5365
O 21.9276 13.4953 20.5216
H 21.0968 13.9523 20.3913
H 21.72 12.7901 21.1345
O 14.6259 14.5473 16.1283
H 15.5518 14.5433 16.3727
H 14.1825 14.9495 16.8752
O 12.52 23.8348 15.6294
H 13.4014 23.4627 15.5894
H 11.9461 23.0795 15.7569
O 2.53337 24.2129 2.42589
H 3.39217 24.5369 2.15454
H 2.54143 23.2852 2.1902
O 13.786 5.86795 24.2717
H 13.1085 6.42731 23.8917
H 13.9126 5.17195 23.6264
O 18.9843 27.126 17.2581
H 19.7879 27.6397 17.1787
H 18.6213 27.3779 18.1072
O 26.1601 12.2899 31.6758
H 27.0517 12.4006 32.0057
H 25.6202 12.8223 32.26
O 7.72949 12.7007 15.409
H 7.92096 13.6169 15.6095
H 7.80134 12.2509 16.2508
O 21.0157 8.37628 2.76943
H 21.2009 9.17245 3.26741
H 21.4747 8.5006 1.93871
O 19.5326 2.64766 6.78181
H 19.8524 3.07311 5.98634
H 20.3194 2.29827 7.20013
O 9.31479 21.0703 7.72097
H 9.55479 21.7136 7.05407
H 9.40813 20.2243 7.28295
O 7.30631 5.64144 12.4361
H 6.5087 5.11544 12.3787
H 7.27864 6.20455 11.6626
O 26.2995 27.8109 15.2273
H 26.6802 28.4845 15.7908
H 26.7888 27.8793 14.4074
O 19.979 1.83296 30.2573
H 19.0457 1.82861 30.0452
H 20.2431 2.74763 30.1583
O 21.896 8.56488 15.6043